 Entering Link 1 = C:\G09W\l1.exe PID=      4060.
  
 Copyright (c) 1988,1990,1992,1993,1995,1998,2003,2009,2013,
            Gaussian, Inc.  All Rights Reserved.
  
 This is part of the Gaussian(R) 09 program.  It is based on
 the Gaussian(R) 03 system (copyright 2003, Gaussian, Inc.),
 the Gaussian(R) 98 system (copyright 1998, Gaussian, Inc.),
 the Gaussian(R) 94 system (copyright 1995, Gaussian, Inc.),
 the Gaussian 92(TM) system (copyright 1992, Gaussian, Inc.),
 the Gaussian 90(TM) system (copyright 1990, Gaussian, Inc.),
 the Gaussian 88(TM) system (copyright 1988, Gaussian, Inc.),
 the Gaussian 86(TM) system (copyright 1986, Carnegie Mellon
 University), and the Gaussian 82(TM) system (copyright 1983,
 Carnegie Mellon University). Gaussian is a federally registered
 trademark of Gaussian, Inc.
  
 This software contains proprietary and confidential information,
 including trade secrets, belonging to Gaussian, Inc.
  
 This software is provided under written license and may be
 used, copied, transmitted, or stored only in accord with that
 written license.
  
 The following legend is applicable only to US Government
 contracts under FAR:
  
                    RESTRICTED RIGHTS LEGEND
  
 Use, reproduction and disclosure by the US Government is
 subject to restrictions as set forth in subparagraphs (a)
 and (c) of the Commercial Computer Software - Restricted
 Rights clause in FAR 52.227-19.
  
 Gaussian, Inc.
 340 Quinnipiac St., Bldg. 40, Wallingford CT 06492
  
  
 ---------------------------------------------------------------
 Warning -- This program may not be used in any manner that
 competes with the business of Gaussian, Inc. or will provide
 assistance to any competitor of Gaussian, Inc.  The licensee
 of this program is prohibited from giving any competitor of
 Gaussian, Inc. access to this program.  By using this program,
 the user acknowledges that Gaussian, Inc. is engaged in the
 business of creating and licensing software in the field of
 computational chemistry and represents and warrants to the
 licensee that it is not a competitor of Gaussian, Inc. and that
 it will not use this program in any manner prohibited above.
 ---------------------------------------------------------------
  

 Cite this work as:
 Gaussian 09, Revision D.01,
 M. J. Frisch, G. W. Trucks, H. B. Schlegel, G. E. Scuseria, 
 M. A. Robb, J. R. Cheeseman, G. Scalmani, V. Barone, B. Mennucci, 
 G. A. Petersson, H. Nakatsuji, M. Caricato, X. Li, H. P. Hratchian, 
 A. F. Izmaylov, J. Bloino, G. Zheng, J. L. Sonnenberg, M. Hada, 
 M. Ehara, K. Toyota, R. Fukuda, J. Hasegawa, M. Ishida, T. Nakajima, 
 Y. Honda, O. Kitao, H. Nakai, T. Vreven, J. A. Montgomery, Jr., 
 J. E. Peralta, F. Ogliaro, M. Bearpark, J. J. Heyd, E. Brothers, 
 K. N. Kudin, V. N. Staroverov, T. Keith, R. Kobayashi, J. Normand, 
 K. Raghavachari, A. Rendell, J. C. Burant, S. S. Iyengar, J. Tomasi, 
 M. Cossi, N. Rega, J. M. Millam, M. Klene, J. E. Knox, J. B. Cross, 
 V. Bakken, C. Adamo, J. Jaramillo, R. Gomperts, R. E. Stratmann, 
 O. Yazyev, A. J. Austin, R. Cammi, C. Pomelli, J. W. Ochterski, 
 R. L. Martin, K. Morokuma, V. G. Zakrzewski, G. A. Voth, 
 P. Salvador, J. J. Dannenberg, S. Dapprich, A. D. Daniels, 
 O. Farkas, J. B. Foresman, J. V. Ortiz, J. Cioslowski, 
 and D. J. Fox, Gaussian, Inc., Wallingford CT, 2013.
 
 ******************************************
 Gaussian 09:  EM64W-G09RevD.01 13-Apr-2013
                07-Oct-2019 
 ******************************************
 %chk=C:\Users\Public\tests\Sn1_vac_TS.chk
 %mem=1GB
 %nprocshared=2
 Will use up to    2 processors via shared memory.
 ----------------------------------------------------------------------
 #p opt=(ts,modredundant) freq rb3lyp/6-31+g(d) scrf=(solvent=dichlorom
 ethane,smd) geom=connectivity scf=maxcycles=9999
 ----------------------------------------------------------------------
 1/5=1,14=-1,18=120,26=3,38=1,57=2/1,3;
 2/9=110,12=2,17=6,18=5,40=1/2;
 3/5=1,6=6,7=11,11=2,16=1,25=1,30=1,70=32201,71=1,72=9,74=-5,116=1/1,2,3;
 4//1;
 5/5=2,7=9999,38=5,53=9/2;
 6/7=2,8=2,9=2,10=2,28=1/1;
 7//1,2,3,16;
 1/5=1,14=-1,18=20,26=3/3(2);
 2/9=110/2;
 99//99;
 2/9=110/2;
 3/5=1,6=6,7=11,11=2,16=1,25=1,30=1,70=32205,71=1,72=9,74=-5,116=1/1,2,3;
 4/5=5,16=3,69=1/1;
 5/5=2,7=9999,38=5,53=9/2;
 7//1,2,3,16;
 1/5=1,14=-1,18=20,26=3/3(-5);
 2/9=110/2;
 6/7=2,8=2,9=2,10=2,19=2,28=1/1;
 99/9=1/99;
 Leave Link    1 at Mon Oct 07 11:41:48 2019, MaxMem=   134217728 cpu:         0.0
 (Enter C:\G09W\l101.exe)
 -------------------
 Title Card Required
 -------------------
 Symbolic Z-matrix:
 Charge =  0 Multiplicity = 1
 C                    -1.87139  -0.00047   0.00012 
 C                    -1.94335   1.37161   0.52239 
 H                    -3.02606   1.59575   0.6034 
 H                    -1.52391   1.46294   1.52651 
 H                    -1.51798   2.10621  -0.16482 
 C                    -1.94191  -0.23443  -1.44898 
 H                    -1.52102   0.58929  -2.02935 
 H                    -1.51774  -1.19735  -1.74132 
 H                    -3.02457  -0.27402  -1.68472 
 C                    -1.93833  -1.13882   0.92714 
 H                    -1.52132  -2.05408   0.50186 
 H                    -1.50833  -0.91151   1.90494 
 H                    -3.02051  -1.32048   1.08634 
 Br                    1.83861   0.00046  -0.0002 
 
 Add virtual bond connecting atoms Br14       and C1         Dist= 7.01D+00.
 The following ModRedundant input section has been read:
 B       1      14 S  20 0.3000                                                
 
 NAtoms=     14 NQM=       14 NQMF=       0 NMMI=      0 NMMIF=      0
                NMic=       0 NMicF=      0.
                    Isotopes and Nuclear Properties:
 (Nuclear quadrupole moments (NQMom) in fm**2, nuclear magnetic moments (NMagM)
  in nuclear magnetons)

  Atom         1           2           3           4           5           6           7           8           9          10
 IAtWgt=          12          12           1           1           1          12           1           1           1          12
 AtmWgt=  12.0000000  12.0000000   1.0078250   1.0078250   1.0078250  12.0000000   1.0078250   1.0078250   1.0078250  12.0000000
 NucSpn=           0           0           1           1           1           0           1           1           1           0
 AtZEff=   0.0000000   0.0000000   0.0000000   0.0000000   0.0000000   0.0000000   0.0000000   0.0000000   0.0000000   0.0000000
 NQMom=    0.0000000   0.0000000   0.0000000   0.0000000   0.0000000   0.0000000   0.0000000   0.0000000   0.0000000   0.0000000
 NMagM=    0.0000000   0.0000000   2.7928460   2.7928460   2.7928460   0.0000000   2.7928460   2.7928460   2.7928460   0.0000000
 AtZNuc=   6.0000000   6.0000000   1.0000000   1.0000000   1.0000000   6.0000000   1.0000000   1.0000000   1.0000000   6.0000000

  Atom        11          12          13          14
 IAtWgt=           1           1           1          79
 AtmWgt=   1.0078250   1.0078250   1.0078250  78.9183361
 NucSpn=           1           1           1           3
 AtZEff=   0.0000000   0.0000000   0.0000000   0.0000000
 NQMom=    0.0000000   0.0000000   0.0000000  31.3000000
 NMagM=    2.7928460   2.7928460   2.7928460   2.1063990
 AtZNuc=   1.0000000   1.0000000   1.0000000  35.0000000
 Leave Link  101 at Mon Oct 07 11:41:49 2019, MaxMem=   134217728 cpu:         0.0
 (Enter C:\G09W\l103.exe)

 GradGradGradGradGradGradGradGradGradGradGradGradGradGradGradGradGradGrad
 Berny optimization.
 Initialization pass.
                           ----------------------------
                           !    Initial Parameters    !
                           ! (Angstroms and Degrees)  !
 --------------------------                            --------------------------
 ! Name  Definition              Value          Derivative Info.                !
 --------------------------------------------------------------------------------
 ! R1    R(1,2)                  1.4699         estimate D2E/DX2                !
 ! R2    R(1,6)                  1.4695         estimate D2E/DX2                !
 ! R3    R(1,10)                 1.4696         estimate D2E/DX2                !
 ! R4    R(1,14)                 3.71           Scan                            !
 ! R5    R(2,3)                  1.1086         estimate D2E/DX2                !
 ! R6    R(2,4)                  1.092          estimate D2E/DX2                !
 ! R7    R(2,5)                  1.0922         estimate D2E/DX2                !
 ! R8    R(6,7)                  1.092          estimate D2E/DX2                !
 ! R9    R(6,8)                  1.0921         estimate D2E/DX2                !
 ! R10   R(6,9)                  1.1087         estimate D2E/DX2                !
 ! R11   R(10,11)                1.092          estimate D2E/DX2                !
 ! R12   R(10,12)                1.0921         estimate D2E/DX2                !
 ! R13   R(10,13)                1.1088         estimate D2E/DX2                !
 ! A1    A(2,1,6)              119.7773         estimate D2E/DX2                !
 ! A2    A(2,1,10)             119.7817         estimate D2E/DX2                !
 ! A3    A(2,1,14)              92.7944         estimate D2E/DX2                !
 ! A4    A(6,1,10)             119.7702         estimate D2E/DX2                !
 ! A5    A(6,1,14)              92.7478         estimate D2E/DX2                !
 ! A6    A(10,1,14)             92.6247         estimate D2E/DX2                !
 ! A7    A(1,2,3)              105.2183         estimate D2E/DX2                !
 ! A8    A(1,2,4)              112.7044         estimate D2E/DX2                !
 ! A9    A(1,2,5)              112.6568         estimate D2E/DX2                !
 ! A10   A(3,2,4)              106.919          estimate D2E/DX2                !
 ! A11   A(3,2,5)              106.8796         estimate D2E/DX2                !
 ! A12   A(4,2,5)              111.8833         estimate D2E/DX2                !
 ! A13   A(1,6,7)              112.6742         estimate D2E/DX2                !
 ! A14   A(1,6,8)              112.6879         estimate D2E/DX2                !
 ! A15   A(1,6,9)              105.2006         estimate D2E/DX2                !
 ! A16   A(7,6,8)              111.9093         estimate D2E/DX2                !
 ! A17   A(7,6,9)              106.8757         estimate D2E/DX2                !
 ! A18   A(8,6,9)              106.9097         estimate D2E/DX2                !
 ! A19   A(1,10,11)            112.7164         estimate D2E/DX2                !
 ! A20   A(1,10,12)            112.6828         estimate D2E/DX2                !
 ! A21   A(1,10,13)            105.1843         estimate D2E/DX2                !
 ! A22   A(11,10,12)           111.8876         estimate D2E/DX2                !
 ! A23   A(11,10,13)           106.9364         estimate D2E/DX2                !
 ! A24   A(12,10,13)           106.848          estimate D2E/DX2                !
 ! D1    D(6,1,2,3)             85.0007         estimate D2E/DX2                !
 ! D2    D(6,1,2,4)           -158.8474         estimate D2E/DX2                !
 ! D3    D(6,1,2,5)            -31.0797         estimate D2E/DX2                !
 ! D4    D(10,1,2,3)           -85.593          estimate D2E/DX2                !
 ! D5    D(10,1,2,4)            30.5588         estimate D2E/DX2                !
 ! D6    D(10,1,2,5)           158.3265         estimate D2E/DX2                !
 ! D7    D(14,1,2,3)           179.7748         estimate D2E/DX2                !
 ! D8    D(14,1,2,4)           -64.0734         estimate D2E/DX2                !
 ! D9    D(14,1,2,5)            63.6944         estimate D2E/DX2                !
 ! D10   D(2,1,6,7)             30.8088         estimate D2E/DX2                !
 ! D11   D(2,1,6,8)            158.6132         estimate D2E/DX2                !
 ! D12   D(2,1,6,9)            -85.2652         estimate D2E/DX2                !
 ! D13   D(10,1,6,7)          -158.5963         estimate D2E/DX2                !
 ! D14   D(10,1,6,8)           -30.792          estimate D2E/DX2                !
 ! D15   D(10,1,6,9)            85.3296         estimate D2E/DX2                !
 ! D16   D(14,1,6,7)           -63.9922         estimate D2E/DX2                !
 ! D17   D(14,1,6,8)            63.8121         estimate D2E/DX2                !
 ! D18   D(14,1,6,9)           179.9337         estimate D2E/DX2                !
 ! D19   D(2,1,10,11)         -159.045          estimate D2E/DX2                !
 ! D20   D(2,1,10,12)          -31.2388         estimate D2E/DX2                !
 ! D21   D(2,1,10,13)           84.7967         estimate D2E/DX2                !
 ! D22   D(6,1,10,11)           30.3606         estimate D2E/DX2                !
 ! D23   D(6,1,10,12)          158.1667         estimate D2E/DX2                !
 ! D24   D(6,1,10,13)          -85.7978         estimate D2E/DX2                !
 ! D25   D(14,1,10,11)         -64.3147         estimate D2E/DX2                !
 ! D26   D(14,1,10,12)          63.4914         estimate D2E/DX2                !
 ! D27   D(14,1,10,13)         179.5269         estimate D2E/DX2                !
 --------------------------------------------------------------------------------
 Trust Radius=3.00D-01 FncErr=1.00D-07 GrdErr=1.00D-06
 Number of optimizations in scan=  21
 Number of steps in this run=     74 maximum allowed number of steps=    100.
 Search for a saddle point of order  1.
 GradGradGradGradGradGradGradGradGradGradGradGradGradGradGradGradGradGrad

 Leave Link  103 at Mon Oct 07 11:41:50 2019, MaxMem=   134217728 cpu:         0.0
 (Enter C:\G09W\l202.exe)
                          Input orientation:                          
 ---------------------------------------------------------------------
 Center     Atomic      Atomic             Coordinates (Angstroms)
 Number     Number       Type             X           Y           Z
 ---------------------------------------------------------------------
      1          6           0       -1.871392   -0.000474    0.000115
      2          6           0       -1.943353    1.371609    0.522392
      3          1           0       -3.026062    1.595745    0.603402
      4          1           0       -1.523905    1.462938    1.526513
      5          1           0       -1.517983    2.106208   -0.164822
      6          6           0       -1.941905   -0.234426   -1.448976
      7          1           0       -1.521018    0.589294   -2.029347
      8          1           0       -1.517741   -1.197349   -1.741322
      9          1           0       -3.024574   -0.274022   -1.684716
     10          6           0       -1.938326   -1.138823    0.927141
     11          1           0       -1.521315   -2.054079    0.501860
     12          1           0       -1.508327   -0.911514    1.904935
     13          1           0       -3.020505   -1.320479    1.086340
     14         35           0        1.838608    0.000456   -0.000196
 ---------------------------------------------------------------------
                    Distance matrix (angstroms):
                    1          2          3          4          5
     1  C    0.000000
     2  C    1.469886   0.000000
     3  H    2.060372   1.108629   0.000000
     4  H    2.142945   1.092033   1.768120   0.000000
     5  H    2.142478   1.092171   1.767779   1.809543   0.000000
     6  C    1.469548   2.542763   2.955872   3.450986   2.703207
     7  H    2.142266   2.702176   3.195226   3.661612   2.403641
     8  H    2.142471   3.450376   3.946408   4.213776   3.660443
     9  H    2.059930   2.957781   2.954914   3.947281   3.200842
    10  C    1.469590   2.542856   2.960716   2.701879   3.449536
    11  H    2.142801   3.451648   3.949150   3.663240   4.213367
    12  H    2.142463   2.704316   3.206845   2.404468   3.659321
    13  H    2.059796   2.953918   2.955947   3.190764   3.945271
    14  Br   3.710000   4.056647   5.155026   3.971925   3.965854
                    6          7          8          9         10
     6  C    0.000000
     7  H    1.092012   0.000000
     8  H    1.092063   1.809713   0.000000
     9  H    1.108744   1.767701   1.768130   0.000000
    10  C    2.542416   3.449834   2.702038   2.957974   0.000000
    11  H    2.700703   3.659840   2.401221   3.195232   1.091996
    12  H    3.448936   4.210838   3.657455   3.948543   1.092085
    13  H    2.961540   3.950089   3.204549   2.962067   1.108808
    14  Br   4.055418   3.968787   3.966275   5.153978   4.052547
                   11         12         13         14
    11  H    0.000000
    12  H    1.809487   0.000000
    13  H    1.768433   1.767493   0.000000
    14  Br   3.970171   3.957674   5.151350   0.000000
 Stoichiometry    C4H9Br
 Framework group  C1[X(C4H9Br)]
 Deg. of freedom    36
 Full point group                 C1      NOp   1
 Largest Abelian subgroup         C1      NOp   1
 Largest concise Abelian subgroup C1      NOp   1
                         Standard orientation:                         
 ---------------------------------------------------------------------
 Center     Atomic      Atomic             Coordinates (Angstroms)
 Number     Number       Type             X           Y           Z
 ---------------------------------------------------------------------
      1          6           0        1.871392   -0.000474   -0.000115
      2          6           0        1.943353    1.371872   -0.521700
      3          1           0        3.026062    1.596049   -0.602597
      4          1           0        1.523904    1.463708   -1.525775
      5          1           0        1.517983    2.106124    0.165885
      6          6           0        1.941905   -0.235157    1.448857
      7          1           0        1.521018    0.588270    2.029644
      8          1           0        1.517741   -1.198228    1.740718
      9          1           0        3.024574   -0.274872    1.684577
     10          6           0        1.938326   -1.138355   -0.927716
     11          1           0        1.521315   -2.053826   -0.502897
     12          1           0        1.508327   -0.910553   -1.905395
     13          1           0        3.020505   -1.319930   -1.087006
     14         35           0       -1.838608    0.000455    0.000197
 ---------------------------------------------------------------------
 Rotational constants (GHZ):      4.4564474      0.9463639      0.9463354
 Leave Link  202 at Mon Oct 07 11:41:51 2019, MaxMem=   134217728 cpu:         0.0
 (Enter C:\G09W\l301.exe)
 Standard basis: 6-31+G(d) (6D, 7F)
 Ernie: Thresh=  0.10000D-02 Tol=  0.10000D-05 Strict=F.
 There are   128 symmetry adapted cartesian basis functions of A   symmetry.
 There are   128 symmetry adapted basis functions of A   symmetry.
   128 basis functions,   251 primitive gaussians,   128 cartesian basis functions
    34 alpha electrons       34 beta electrons
       nuclear repulsion energy       277.8047307997 Hartrees.
 IExCor=  402 DFT=T Ex+Corr=B3LYP ExCW=0 ScaHFX=  0.200000
 ScaDFX=  0.800000  0.720000  1.000000  0.810000 ScalE2=  1.000000  1.000000
 IRadAn=      0 IRanWt=     -1 IRanGd=            0 ICorTp=0 IEmpDi=  4
 NAtoms=   14 NActive=   14 NUniq=   14 SFac= 1.00D+00 NAtFMM=   60 NAOKFM=F Big=F
 Integral buffers will be    131072 words long.
 Raffenetti 2 integral format.
 Two-electron integral symmetry is turned on.
 ------------------------------------------------------------------------------
 Polarizable Continuum Model (PCM)
 =================================
 Model                : PCM (using non-symmetric T matrix).
 Atomic radii         : SMD-Coulomb.
 Polarization charges : Total charges.
 Charge compensation  : None.
 Solution method      : On-the-fly selection.
 Cavity type          : VdW (van der Waals Surface) (Alpha=1.000).
 Cavity algorithm     : GePol (No added spheres)
                        Default sphere list used, NSphG=   14.
                        Lebedev-Laikov grids with approx.  5.0 points / Ang**2.
                        Smoothing algorithm: Karplus/York (Gamma=1.0000).
                        Polarization charges: spherical gaussians, with
                                              point-specific exponents (IZeta= 3).
                        Self-potential: point-specific (ISelfS= 7).
                        Self-field    : sphere-specific E.n sum rule (ISelfD= 2).
 1st derivatives      : Analytical E(r).r(x)/FMM algorithm (CHGder, D1EAlg=3).
                        Cavity 1st derivative terms included.
 Solvent              : Dichloromethane, Eps=   8.930000 Eps(inf)=   2.028346
 ------------------------------------------------------------------------------
 Spheres list:
 ISph  on   Nord     Re0    Alpha      Xe            Ye            Ze
    1   C      1    1.8500  1.000      1.871392     -0.000474     -0.000115
    2   C      2    1.8500  1.000      1.943353      1.371872     -0.521700
    3   H      3    1.2000  1.000      3.026062      1.596049     -0.602597
    4   H      4    1.2000  1.000      1.523904      1.463708     -1.525775
    5   H      5    1.2000  1.000      1.517983      2.106124      0.165885
    6   C      6    1.8500  1.000      1.941905     -0.235157      1.448857
    7   H      7    1.2000  1.000      1.521018      0.588270      2.029644
    8   H      8    1.2000  1.000      1.517741     -1.198228      1.740718
    9   H      9    1.2000  1.000      3.024574     -0.274872      1.684577
   10   C     10    1.8500  1.000      1.938326     -1.138355     -0.927716
   11   H     11    1.2000  1.000      1.521315     -2.053826     -0.502897
   12   H     12    1.2000  1.000      1.508327     -0.910553     -1.905395
   13   H     13    1.2000  1.000      3.020505     -1.319930     -1.087006
   14  Br     14    3.0600  1.000     -1.838608      0.000455      0.000197
 ------------------------------------------------------------------------------
 GePol: Number of generator spheres                  =      14
 GePol: Total number of spheres                      =      14
 GePol: Number of exposed spheres                    =      14 (100.00%)
 GePol: Number of points                             =    1368
 GePol: Average weight of points                     =       0.14
 GePol: Minimum weight of points                     =   0.16D-08
 GePol: Maximum weight of points                     =    0.22025
 GePol: Number of points with low weight             =      55
 GePol: Fraction of low-weight points (<1% of avg)   =       4.02%
 GePol: Cavity surface area                          =    196.635 Ang**2
 GePol: Cavity volume                                =    194.473 Ang**3
 ------------------------------------------------------------------------------
 Atomic radii for non-electrostatic terms: SMD-CDS.
 ------------------------------------------------------------------------------
 PCM non-electrostatic energy =        -0.0061328138 Hartrees.
 Nuclear repulsion after PCM non-electrostatic terms =      277.7985979859 Hartrees.
 Leave Link  301 at Mon Oct 07 11:41:51 2019, MaxMem=   134217728 cpu:         0.0
 (Enter C:\G09W\l302.exe)
 NPDir=0 NMtPBC=     1 NCelOv=     1 NCel=       1 NClECP=     1 NCelD=      1
         NCelK=      1 NCelE2=     1 NClLst=     1 CellRange=     0.0.
 One-electron integrals computed using PRISM.
 NBasis=   128 RedAO= T EigKep=  7.77D-05  NBF=   128
 NBsUse=   128 1.00D-06 EigRej= -1.00D+00 NBFU=   128
 Precomputing XC quadrature grid using
 IXCGrd= 4 IRadAn=           0 IRanWt=          -1 IRanGd=           0 AccXCQ= 0.00D+00.
 Generated NRdTot=       0 NPtTot=           0 NUsed=           0 NTot=          32
 NSgBfM=   127   127   127   127   127 MxSgAt=    14 MxSgA2=    14.
 Leave Link  302 at Mon Oct 07 11:41:53 2019, MaxMem=   134217728 cpu:         1.0
 (Enter C:\G09W\l303.exe)
 DipDrv:  MaxL=1.
 Leave Link  303 at Mon Oct 07 11:41:53 2019, MaxMem=   134217728 cpu:         0.0
 (Enter C:\G09W\l401.exe)
 ExpMin= 3.50D-02 ExpMax= 5.74D+05 ExpMxC= 5.74D+03 IAcc=3 IRadAn=         5 AccDes= 0.00D+00
 Harris functional with IExCor=  402 and IRadAn=       5 diagonalized for initial guess.
 HarFok:  IExCor=  402 AccDes= 0.00D+00 IRadAn=         5 IDoV= 1 UseB2=F ITyADJ=14
 ICtDFT=  3500011 ScaDFX=  1.000000  1.000000  1.000000  1.000000
 FoFCou: FMM=F IPFlag=           0 FMFlag=      100000 FMFlg1=           0
         NFxFlg=           0 DoJE=T BraDBF=F KetDBF=T FulRan=T
         wScrn=  0.000000 ICntrl=     500 IOpCl=  0 I1Cent=   200000004 NGrid=           0
         NMat0=    1 NMatS0=      1 NMatT0=    0 NMatD0=    1 NMtDS0=    0 NMtDT0=    0
 Petite list used in FoFCou.
 Harris En= -2729.75394926693    
 JPrj=0 DoOrth=F DoCkMO=F.
 Leave Link  401 at Mon Oct 07 11:41:59 2019, MaxMem=   134217728 cpu:         5.0
 (Enter C:\G09W\l502.exe)
 Closed shell SCF:
 Using DIIS extrapolation, IDIIS=  1040.
 Integral symmetry usage will be decided dynamically.
 IVT=   100082417 IEndB=   100082417 NGot=   134217728 MDV=   134151823
 LenX=   134151823 LenY=   134134998
 Requested convergence on RMS density matrix=1.00D-08 within9999 cycles.
 Requested convergence on MAX density matrix=1.00D-06.
 Requested convergence on             energy=1.00D-06.
 No special actions if energy rises.
 Fock matrices will be formed incrementally for  20 cycles.

 Cycle   1  Pass 1  IDiag  1:
 FoFJK:  IHMeth= 1 ICntrl=       0 DoSepK=F KAlg= 0 I1Cent=   0 FoldK=F
 IRaf= 950000000 NMat=   1 IRICut=       1 DoRegI=T DoRafI=F ISym2E= 0.
 FoFCou: FMM=F IPFlag=           0 FMFlag=      100000 FMFlg1=           0
         NFxFlg=           0 DoJE=F BraDBF=F KetDBF=F FulRan=T
         wScrn=  0.000000 ICntrl=       0 IOpCl=  0 I1Cent=           0 NGrid=           0
         NMat0=    1 NMatS0=      1 NMatT0=    0 NMatD0=    1 NMtDS0=    0 NMtDT0=    0
 Symmetry not used in FoFCou.
 Inv3:  Mode=1 IEnd=     5614272.
 Iteration    1 A*A^-1 deviation from unit magnitude is 6.44D-15 for    648.
 Iteration    1 A*A^-1 deviation from orthogonality  is 5.56D-15 for    770    121.
 Iteration    1 A^-1*A deviation from unit magnitude is 3.55D-15 for     49.
 Iteration    1 A^-1*A deviation from orthogonality  is 3.64D-12 for    898    644.
 E= -2729.37209664079    
 DIIS: error= 1.63D-01 at cycle   1 NSaved=   1.
 NSaved= 1 IEnMin= 1 EnMin= -2729.37209664079     IErMin= 1 ErrMin= 1.63D-01
 ErrMax= 1.63D-01  0.00D+00 EMaxC= 1.00D-01 BMatC= 5.00D-01 BMatP= 5.00D-01
 IDIUse=3 WtCom= 0.00D+00 WtEn= 1.00D+00
 Coeff-Com:  0.100D+01
 Coeff-En:   0.100D+01
 Coeff:      0.100D+01
 Gap=    -0.008 Goal=   None    Shift=    0.000
 DSYEVD-2 returned Info=        8481 IAlg= 4 N=   128 NDim=   128 NE2=     1047928 trying  DSYEV.
 GapD=   -0.008 DampG=0.250 DampE=0.250 DampFc=0.2500 IDamp=-1.
 Damping current iteration by 2.50D-01
 RMSDP=1.83D-02 MaxDP=9.23D-01              OVMax= 6.69D-01

 Cycle   2  Pass 1  IDiag  1:
 RMSU=  4.51D-03    CP:  9.89D-01
 E= -2729.42508040792     Delta-E=       -0.052983767126 Rises=F Damp=T
 DIIS: error= 1.22D-01 at cycle   2 NSaved=   2.
 NSaved= 2 IEnMin= 2 EnMin= -2729.42508040792     IErMin= 2 ErrMin= 1.22D-01
 ErrMax= 1.22D-01  0.00D+00 EMaxC= 1.00D-01 BMatC= 2.38D-01 BMatP= 5.00D-01
 IDIUse=3 WtCom= 0.00D+00 WtEn= 1.00D+00
 Coeff-Com: -0.143D+01 0.243D+01
 Coeff-En:   0.000D+00 0.100D+01
 Coeff:      0.000D+00 0.100D+01
 Gap=     0.068 Goal=   None    Shift=    0.000
 RMSDP=6.54D-03 MaxDP=2.26D-01 DE=-5.30D-02 OVMax= 6.10D-01

 Cycle   3  Pass 1  IDiag  1:
 RMSU=  5.64D-03    CP:  9.61D-01  1.59D+00
 E= -2729.50440394659     Delta-E=       -0.079323538674 Rises=F Damp=F
 DIIS: error= 2.78D-02 at cycle   3 NSaved=   3.
 NSaved= 3 IEnMin= 3 EnMin= -2729.50440394659     IErMin= 3 ErrMin= 2.78D-02
 ErrMax= 2.78D-02  0.00D+00 EMaxC= 1.00D-01 BMatC= 4.43D-02 BMatP= 2.38D-01
 IDIUse=3 WtCom= 7.22D-01 WtEn= 2.78D-01
 EnCoef did   100 forward-backward iterations
 Coeff-Com:  0.205D-01 0.211D+00 0.768D+00
 Coeff-En:   0.105D+00 0.231D-02 0.893D+00
 Coeff:      0.441D-01 0.153D+00 0.803D+00
 Gap=     0.027 Goal=   None    Shift=    0.000
 DSYEVD-2 returned Info=        8481 IAlg= 4 N=   128 NDim=   128 NE2=     1047928 trying  DSYEV.
 RMSDP=7.74D-03 MaxDP=3.91D-01 DE=-7.93D-02 OVMax= 3.45D-01

 Cycle   4  Pass 1  IDiag  1:
 RMSU=  4.43D-03    CP:  9.60D-01  2.78D+00  3.94D-01
 E= -2729.48360816293     Delta-E=        0.020795783662 Rises=F Damp=F
 DIIS: error= 2.11D-02 at cycle   4 NSaved=   4.
 NSaved= 4 IEnMin= 3 EnMin= -2729.50440394659     IErMin= 4 ErrMin= 2.11D-02
 ErrMax= 2.11D-02  0.00D+00 EMaxC= 1.00D-01 BMatC= 4.83D-02 BMatP= 4.43D-02
 IDIUse=3 WtCom= 7.89D-01 WtEn= 2.11D-01
 Coeff-Com:  0.340D+00-0.424D+00 0.595D+00 0.489D+00
 Coeff-En:   0.000D+00 0.000D+00 0.581D+00 0.419D+00
 Coeff:      0.268D+00-0.335D+00 0.592D+00 0.474D+00
 Gap=     0.075 Goal=   None    Shift=    0.000
 RMSDP=5.08D-03 MaxDP=2.53D-01 DE= 2.08D-02 OVMax= 2.80D-01

 Cycle   5  Pass 1  IDiag  1:
 RMSU=  7.64D-04    CP:  9.61D-01  1.88D+00  8.31D-01  6.34D-01
 E= -2729.55216777752     Delta-E=       -0.068559614587 Rises=F Damp=F
 DIIS: error= 1.83D-03 at cycle   5 NSaved=   5.
 NSaved= 5 IEnMin= 5 EnMin= -2729.55216777752     IErMin= 5 ErrMin= 1.83D-03
 ErrMax= 1.83D-03  0.00D+00 EMaxC= 1.00D-01 BMatC= 6.11D-04 BMatP= 4.43D-02
 IDIUse=3 WtCom= 9.82D-01 WtEn= 1.83D-02
 Coeff-Com: -0.129D+00 0.173D+00 0.913D-02 0.603D-02 0.941D+00
 Coeff-En:   0.000D+00 0.000D+00 0.000D+00 0.000D+00 0.100D+01
 Coeff:     -0.126D+00 0.170D+00 0.897D-02 0.592D-02 0.942D+00
 Gap=     0.078 Goal=   None    Shift=    0.000
 RMSDP=4.39D-04 MaxDP=2.97D-02 DE=-6.86D-02 OVMax= 4.96D-03

 Cycle   6  Pass 1  IDiag  1:
 RMSU=  2.40D-04    CP:  9.61D-01  1.95D+00  8.53D-01  6.34D-01  1.06D+00
 E= -2729.55273341191     Delta-E=       -0.000565634395 Rises=F Damp=F
 DIIS: error= 7.54D-04 at cycle   6 NSaved=   6.
 NSaved= 6 IEnMin= 6 EnMin= -2729.55273341191     IErMin= 6 ErrMin= 7.54D-04
 ErrMax= 7.54D-04  0.00D+00 EMaxC= 1.00D-01 BMatC= 1.02D-04 BMatP= 6.11D-04
 IDIUse=3 WtCom= 9.92D-01 WtEn= 7.54D-03
 Coeff-Com: -0.790D-01 0.105D+00-0.231D-01 0.507D-02 0.315D+00 0.677D+00
 Coeff-En:   0.000D+00 0.000D+00 0.000D+00 0.000D+00 0.000D+00 0.100D+01
 Coeff:     -0.784D-01 0.104D+00-0.229D-01 0.503D-02 0.313D+00 0.679D+00
 Gap=     0.076 Goal=   None    Shift=    0.000
 RMSDP=1.27D-04 MaxDP=6.49D-03 DE=-5.66D-04 OVMax= 3.47D-03

 Cycle   7  Pass 1  IDiag  1:
 RMSU=  5.65D-05    CP:  9.61D-01  1.97D+00  8.47D-01  6.47D-01  1.12D+00
                    CP:  9.80D-01
 E= -2729.55283395865     Delta-E=       -0.000100546738 Rises=F Damp=F
 DIIS: error= 4.56D-04 at cycle   7 NSaved=   7.
 NSaved= 7 IEnMin= 7 EnMin= -2729.55283395865     IErMin= 7 ErrMin= 4.56D-04
 ErrMax= 4.56D-04  0.00D+00 EMaxC= 1.00D-01 BMatC= 3.72D-05 BMatP= 1.02D-04
 IDIUse=3 WtCom= 9.95D-01 WtEn= 4.56D-03
 Coeff-Com: -0.878D-02 0.110D-01-0.223D-01 0.531D-02-0.186D+00-0.176D+00
 Coeff-Com:  0.138D+01
 Coeff-En:   0.000D+00 0.000D+00 0.000D+00 0.000D+00 0.000D+00 0.000D+00
 Coeff-En:   0.100D+01
 Coeff:     -0.874D-02 0.110D-01-0.222D-01 0.529D-02-0.185D+00-0.175D+00
 Coeff:      0.138D+01
 Gap=     0.074 Goal=   None    Shift=    0.000
 RMSDP=2.35D-04 MaxDP=1.69D-02 DE=-1.01D-04 OVMax= 4.99D-03

 Cycle   8  Pass 1  IDiag  1:
 RMSU=  2.19D-05    CP:  9.61D-01  2.01D+00  8.43D-01  6.69D-01  1.17D+00
                    CP:  1.23D+00  1.50D+00
 E= -2729.55289039980     Delta-E=       -0.000056441146 Rises=F Damp=F
 DIIS: error= 6.87D-05 at cycle   8 NSaved=   8.
 NSaved= 8 IEnMin= 8 EnMin= -2729.55289039980     IErMin= 8 ErrMin= 6.87D-05
 ErrMax= 6.87D-05  0.00D+00 EMaxC= 1.00D-01 BMatC= 3.83D-07 BMatP= 3.72D-05
 IDIUse=1 WtCom= 1.00D+00 WtEn= 0.00D+00
 Coeff-Com:  0.152D-02-0.216D-02-0.660D-02 0.182D-02-0.891D-01-0.134D+00
 Coeff-Com:  0.498D+00 0.731D+00
 Coeff:      0.152D-02-0.216D-02-0.660D-02 0.182D-02-0.891D-01-0.134D+00
 Coeff:      0.498D+00 0.731D+00
 Gap=     0.073 Goal=   None    Shift=    0.000
 DSYEVD-2 returned Info=        8481 IAlg= 4 N=   128 NDim=   128 NE2=     1047928 trying  DSYEV.
 RMSDP=3.05D-05 MaxDP=2.03D-03 DE=-5.64D-05 OVMax= 9.15D-04

 Cycle   9  Pass 1  IDiag  1:
 RMSU=  5.78D-06    CP:  9.61D-01  2.02D+00  8.42D-01  6.71D-01  1.18D+00
                    CP:  1.25D+00  1.62D+00  1.03D+00
 E= -2729.55289094854     Delta-E=       -0.000000548745 Rises=F Damp=F
 DIIS: error= 2.60D-05 at cycle   9 NSaved=   9.
 NSaved= 9 IEnMin= 9 EnMin= -2729.55289094854     IErMin= 9 ErrMin= 2.60D-05
 ErrMax= 2.60D-05  0.00D+00 EMaxC= 1.00D-01 BMatC= 4.82D-08 BMatP= 3.83D-07
 IDIUse=1 WtCom= 1.00D+00 WtEn= 0.00D+00
 Coeff-Com: -0.350D-03 0.458D-03-0.125D-02 0.374D-03-0.136D-01-0.324D-01
 Coeff-Com:  0.112D+00 0.322D+00 0.613D+00
 Coeff:     -0.350D-03 0.458D-03-0.125D-02 0.374D-03-0.136D-01-0.324D-01
 Coeff:      0.112D+00 0.322D+00 0.613D+00
 Gap=     0.074 Goal=   None    Shift=    0.000
 DSYEVD-2 returned Info=        8481 IAlg= 4 N=   128 NDim=   128 NE2=     1047928 trying  DSYEV.
 RMSDP=8.41D-06 MaxDP=5.72D-04 DE=-5.49D-07 OVMax= 1.92D-04

 Cycle  10  Pass 1  IDiag  1:
 RMSU=  1.40D-06    CP:  9.61D-01  2.02D+00  8.42D-01  6.71D-01  1.18D+00
                    CP:  1.25D+00  1.60D+00  1.01D+00  7.69D-01
 E= -2729.55289102865     Delta-E=       -0.000000080108 Rises=F Damp=F
 DIIS: error= 2.24D-06 at cycle  10 NSaved=  10.
 NSaved=10 IEnMin=10 EnMin= -2729.55289102865     IErMin=10 ErrMin= 2.24D-06
 ErrMax= 2.24D-06  0.00D+00 EMaxC= 1.00D-01 BMatC= 3.71D-10 BMatP= 4.82D-08
 IDIUse=1 WtCom= 1.00D+00 WtEn= 0.00D+00
 Coeff-Com: -0.140D-03 0.191D-03 0.486D-04 0.429D-04 0.951D-03 0.784D-04
 Coeff-Com:  0.128D-02 0.261D-01 0.143D+00 0.829D+00
 Coeff:     -0.140D-03 0.191D-03 0.486D-04 0.429D-04 0.951D-03 0.784D-04
 Coeff:      0.128D-02 0.261D-01 0.143D+00 0.829D+00
 Gap=     0.074 Goal=   None    Shift=    0.000
 RMSDP=1.16D-06 MaxDP=6.08D-05 DE=-8.01D-08 OVMax= 4.65D-05

 Cycle  11  Pass 1  IDiag  1:
 RMSU=  2.77D-07    CP:  9.61D-01  2.02D+00  8.42D-01  6.71D-01  1.18D+00
                    CP:  1.25D+00  1.59D+00  1.02D+00  8.41D-01  1.04D+00
 E= -2729.55289102970     Delta-E=       -0.000000001054 Rises=F Damp=F
 DIIS: error= 5.54D-07 at cycle  11 NSaved=  11.
 NSaved=11 IEnMin=11 EnMin= -2729.55289102970     IErMin=11 ErrMin= 5.54D-07
 ErrMax= 5.54D-07  0.00D+00 EMaxC= 1.00D-01 BMatC= 5.27D-11 BMatP= 3.71D-10
 IDIUse=1 WtCom= 1.00D+00 WtEn= 0.00D+00
 Coeff-Com: -0.356D-04 0.486D-04 0.777D-04 0.538D-05 0.985D-03 0.159D-02
 Coeff-Com: -0.533D-02-0.110D-01 0.716D-02 0.203D+00 0.803D+00
 Coeff:     -0.356D-04 0.486D-04 0.777D-04 0.538D-05 0.985D-03 0.159D-02
 Coeff:     -0.533D-02-0.110D-01 0.716D-02 0.203D+00 0.803D+00
 Gap=     0.074 Goal=   None    Shift=    0.000
 DSYEVD-2 returned Info=        8481 IAlg= 4 N=   128 NDim=   128 NE2=     1047928 trying  DSYEV.
 RMSDP=3.75D-07 MaxDP=2.28D-05 DE=-1.05D-09 OVMax= 1.54D-05

 Cycle  12  Pass 1  IDiag  1:
 RMSU=  7.43D-08    CP:  9.61D-01  2.02D+00  8.42D-01  6.71D-01  1.18D+00
                    CP:  1.25D+00  1.59D+00  1.02D+00  8.63D-01  1.11D+00
                    CP:  1.13D+00
 E= -2729.55289102986     Delta-E=       -0.000000000154 Rises=F Damp=F
 DIIS: error= 1.41D-07 at cycle  12 NSaved=  12.
 NSaved=12 IEnMin=12 EnMin= -2729.55289102986     IErMin=12 ErrMin= 1.41D-07
 ErrMax= 1.41D-07  0.00D+00 EMaxC= 1.00D-01 BMatC= 2.38D-12 BMatP= 5.27D-11
 IDIUse=1 WtCom= 1.00D+00 WtEn= 0.00D+00
 Coeff-Com:  0.373D-05-0.504D-05-0.253D-06 0.336D-05-0.385D-04-0.760D-04
 Coeff-Com: -0.371D-04-0.711D-03-0.481D-02-0.292D-01 0.753D-02 0.103D+01
 Coeff:      0.373D-05-0.504D-05-0.253D-06 0.336D-05-0.385D-04-0.760D-04
 Coeff:     -0.371D-04-0.711D-03-0.481D-02-0.292D-01 0.753D-02 0.103D+01
 Gap=     0.074 Goal=   None    Shift=    0.000
 RMSDP=1.55D-07 MaxDP=1.05D-05 DE=-1.54D-10 OVMax= 5.29D-06

 Cycle  13  Pass 1  IDiag  1:
 RMSU=  1.10D-08    CP:  9.61D-01  2.02D+00  8.42D-01  6.71D-01  1.18D+00
                    CP:  1.25D+00  1.59D+00  1.02D+00  8.68D-01  1.12D+00
                    CP:  1.20D+00  1.14D+00
 E= -2729.55289102986     Delta-E=        0.000000000002 Rises=F Damp=F
 DIIS: error= 4.32D-08 at cycle  13 NSaved=  13.
 NSaved=13 IEnMin=12 EnMin= -2729.55289102986     IErMin=13 ErrMin= 4.32D-08
 ErrMax= 4.32D-08  0.00D+00 EMaxC= 1.00D-01 BMatC= 2.18D-13 BMatP= 2.38D-12
 IDIUse=1 WtCom= 1.00D+00 WtEn= 0.00D+00
 Coeff-Com:  0.246D-06-0.320D-06-0.826D-06 0.277D-06-0.944D-05-0.146D-04
 Coeff-Com:  0.791D-04 0.110D-03-0.118D-02-0.612D-02-0.141D-01 0.123D+00
 Coeff-Com:  0.898D+00
 Coeff:      0.246D-06-0.320D-06-0.826D-06 0.277D-06-0.944D-05-0.146D-04
 Coeff:      0.791D-04 0.110D-03-0.118D-02-0.612D-02-0.141D-01 0.123D+00
 Coeff:      0.898D+00
 Gap=     0.074 Goal=   None    Shift=    0.000
 RMSDP=1.23D-08 MaxDP=5.90D-07 DE= 1.82D-12 OVMax= 2.36D-07

 Cycle  14  Pass 1  IDiag  1:
 RMSU=  1.31D-09    CP:  9.61D-01  2.02D+00  8.42D-01  6.71D-01  1.18D+00
                    CP:  1.25D+00  1.59D+00  1.02D+00  8.68D-01  1.13D+00
                    CP:  1.21D+00  1.17D+00  1.09D+00
 E= -2729.55289102985     Delta-E=        0.000000000010 Rises=F Damp=F
 DIIS: error= 3.91D-09 at cycle  14 NSaved=  14.
 NSaved=14 IEnMin=12 EnMin= -2729.55289102986     IErMin=14 ErrMin= 3.91D-09
 ErrMax= 3.91D-09  0.00D+00 EMaxC= 1.00D-01 BMatC= 2.39D-15 BMatP= 2.18D-13
 IDIUse=1 WtCom= 1.00D+00 WtEn= 0.00D+00
 Coeff-Com:  0.325D-07-0.421D-07-0.275D-06 0.601D-07-0.270D-05-0.267D-05
 Coeff-Com:  0.284D-04 0.405D-04-0.290D-03-0.126D-02-0.411D-02 0.181D-01
 Coeff-Com:  0.230D+00 0.758D+00
 Coeff:      0.325D-07-0.421D-07-0.275D-06 0.601D-07-0.270D-05-0.267D-05
 Coeff:      0.284D-04 0.405D-04-0.290D-03-0.126D-02-0.411D-02 0.181D-01
 Coeff:      0.230D+00 0.758D+00
 Gap=     0.074 Goal=   None    Shift=    0.000
 RMSDP=1.01D-09 MaxDP=1.74D-08 DE= 9.55D-12 OVMax= 2.05D-08

 Error on total polarization charges =  0.02645
 SCF Done:  E(RB3LYP) =  -2729.55289103     A.U. after   14 cycles
            NFock= 14  Conv=0.10D-08     -V/T= 2.0066
 KE= 2.711688727010D+03 PE=-7.055028313792D+03 EE= 1.335988097766D+03
 SMD-CDS (non-electrostatic) energy       (kcal/mol) =      -3.85
 (included in total energy above)
 Leave Link  502 at Mon Oct 07 11:43:22 2019, MaxMem=   134217728 cpu:        82.0
 (Enter C:\G09W\l601.exe)
 Copying SCF densities to generalized density rwf, IOpCl= 0 IROHF=0.

 **********************************************************************

            Population analysis using the SCF density.

 **********************************************************************

 Orbital symmetries:
       Occupied  (A) (A) (A) (A) (A) (A) (A) (A) (A) (A) (A) (A)
                 (A) (A) (A) (A) (A) (A) (A) (A) (A) (A) (A) (A)
                 (A) (A) (A) (A) (A) (A) (A) (A) (A) (A)
       Virtual   (A) (A) (A) (A) (A) (A) (A) (A) (A) (A) (A) (A)
                 (A) (A) (A) (A) (A) (A) (A) (A) (A) (A) (A) (A)
                 (A) (A) (A) (A) (A) (A) (A) (A) (A) (A) (A) (A)
                 (A) (A) (A) (A) (A) (A) (A) (A) (A) (A) (A) (A)
                 (A) (A) (A) (A) (A) (A) (A) (A) (A) (A) (A) (A)
                 (A) (A) (A) (A) (A) (A) (A) (A) (A) (A) (A) (A)
                 (A) (A) (A) (A) (A) (A) (A) (A) (A) (A) (A) (A)
                 (A) (A) (A) (A) (A) (A) (A) (A) (A) (A)
 The electronic state is 1-A.
 Alpha  occ. eigenvalues -- -482.80383 -61.76425 -56.28047 -56.27974 -56.27974
 Alpha  occ. eigenvalues --  -10.32384 -10.21249 -10.21245 -10.21243  -8.47066
 Alpha  occ. eigenvalues --   -6.41619  -6.41454  -6.41454  -2.53297  -2.53254
 Alpha  occ. eigenvalues --   -2.53253  -2.53122  -2.53122  -0.87005  -0.73719
 Alpha  occ. eigenvalues --   -0.73710  -0.63304  -0.56987  -0.48592  -0.48581
 Alpha  occ. eigenvalues --   -0.48297  -0.41799  -0.41788  -0.40082  -0.39266
 Alpha  occ. eigenvalues --   -0.39259  -0.20480  -0.20137  -0.20135
 Alpha virt. eigenvalues --   -0.12772   0.00503   0.03220   0.03246   0.03249
 Alpha virt. eigenvalues --    0.05466   0.05471   0.06274   0.07134   0.07137
 Alpha virt. eigenvalues --    0.07686   0.09561   0.09766   0.09769   0.11368
 Alpha virt. eigenvalues --    0.13710   0.13715   0.14296   0.15320   0.15347
 Alpha virt. eigenvalues --    0.19159   0.19394   0.19406   0.22395   0.24075
 Alpha virt. eigenvalues --    0.24090   0.26062   0.28191   0.30026   0.30044
 Alpha virt. eigenvalues --    0.33052   0.33091   0.33230   0.50936   0.56205
 Alpha virt. eigenvalues --    0.56210   0.59108   0.59476   0.59489   0.60998
 Alpha virt. eigenvalues --    0.64035   0.64043   0.66582   0.66595   0.69102
 Alpha virt. eigenvalues --    0.70687   0.70714   0.73781   0.74890   0.74897
 Alpha virt. eigenvalues --    0.76117   0.76167   0.80398   0.83682   0.93164
 Alpha virt. eigenvalues --    0.93175   0.98796   0.99038   1.03658   1.03674
 Alpha virt. eigenvalues --    1.05844   1.13694   1.13725   1.16919   1.20628
 Alpha virt. eigenvalues --    1.34687   1.34742   1.42436   1.42490   1.69386
 Alpha virt. eigenvalues --    1.80705   1.80720   1.81875   1.87835   1.98779
 Alpha virt. eigenvalues --    2.02519   2.02529   2.16826   2.16957   2.24471
 Alpha virt. eigenvalues --    2.24543   2.24698   2.24835   2.41921   2.41964
 Alpha virt. eigenvalues --    2.55727   2.75214   2.75235   4.14855   4.29186
 Alpha virt. eigenvalues --    4.29192   4.46204   8.90987  76.88320
          Condensed to atoms (all electrons):
               1          2          3          4          5          6
     1  C    6.576701  -0.374641   0.014808  -0.080853  -0.080329  -0.373668
     2  C   -0.374641   6.247312   0.379719   0.410894   0.410677  -0.077484
     3  H    0.014808   0.379719   0.416761  -0.020979  -0.020962  -0.035659
     4  H   -0.080853   0.410894  -0.020979   0.430588  -0.018407   0.017600
     5  H   -0.080329   0.410677  -0.020962  -0.018407   0.430066  -0.009215
     6  C   -0.373668  -0.077484  -0.035659   0.017600  -0.009215   6.246440
     7  H   -0.080763  -0.008860   0.000381   0.000016   0.002534   0.410754
     8  H   -0.080531   0.017742  -0.000029  -0.000122   0.000015   0.410726
     9  H    0.015172  -0.036316  -0.000912  -0.000030   0.000383   0.379492
    10  C   -0.376617  -0.074671  -0.036517  -0.008568   0.017838  -0.072989
    11  H   -0.081249   0.017540  -0.000032   0.000019  -0.000122  -0.008552
    12  H   -0.080286  -0.009252   0.000383   0.002530   0.000014   0.017978
    13  H    0.015270  -0.035687  -0.000910   0.000379  -0.000028  -0.036621
    14  Br   0.451251  -0.129138   0.002077  -0.004139  -0.004174  -0.129167
               7          8          9         10         11         12
     1  C   -0.080763  -0.080531   0.015172  -0.376617  -0.081249  -0.080286
     2  C   -0.008860   0.017742  -0.036316  -0.074671   0.017540  -0.009252
     3  H    0.000381  -0.000029  -0.000912  -0.036517  -0.000032   0.000383
     4  H    0.000016  -0.000122  -0.000030  -0.008568   0.000019   0.002530
     5  H    0.002534   0.000015   0.000383   0.017838  -0.000122   0.000014
     6  C    0.410754   0.410726   0.379492  -0.072989  -0.008552   0.017978
     7  H    0.430423  -0.018379  -0.020975   0.017811   0.000019  -0.000123
     8  H   -0.018379   0.430120  -0.020944  -0.008962   0.002560   0.000016
     9  H   -0.020975  -0.020944   0.416705  -0.036040   0.000377  -0.000029
    10  C    0.017811  -0.008962  -0.036040   6.246813   0.411293   0.410481
    11  H    0.000019   0.002560   0.000377   0.411293   0.430616  -0.018406
    12  H   -0.000123   0.000016  -0.000029   0.410481  -0.018406   0.430157
    13  H   -0.000031   0.000381  -0.000910   0.379305  -0.020992  -0.020955
    14  Br  -0.004167  -0.004166   0.002083  -0.129772  -0.004160  -0.004233
              13         14
     1  C    0.015270   0.451251
     2  C   -0.035687  -0.129138
     3  H   -0.000910   0.002077
     4  H    0.000379  -0.004139
     5  H   -0.000028  -0.004174
     6  C   -0.036621  -0.129167
     7  H   -0.000031  -0.004167
     8  H    0.000381  -0.004166
     9  H   -0.000910   0.002083
    10  C    0.379305  -0.129772
    11  H   -0.020992  -0.004160
    12  H   -0.020955  -0.004233
    13  H    0.416741   0.002094
    14  Br   0.002094  35.808777
 Mulliken charges:
               1
     1  C    0.535733
     2  C   -0.737835
     3  H    0.301870
     4  H    0.271073
     5  H    0.271710
     6  C   -0.739637
     7  H    0.271360
     8  H    0.271573
     9  H    0.301942
    10  C   -0.739403
    11  H    0.271090
    12  H    0.271726
    13  H    0.301964
    14  Br  -0.853165
 Sum of Mulliken charges =   0.00000
 Mulliken charges with hydrogens summed into heavy atoms:
               1
     1  C    0.535733
     2  C    0.106818
     6  C    0.105238
    10  C    0.105376
    14  Br  -0.853165
 Electronic spatial extent (au):  <R**2>=           1248.6833
 Charge=              0.0000 electrons
 Dipole moment (field-independent basis, Debye):
    X=             16.7118    Y=             -0.0017    Z=             -0.0020  Tot=             16.7118
 Quadrupole moment (field-independent basis, Debye-Ang):
   XX=            -42.4299   YY=            -43.4226   ZZ=            -43.4157
   XY=              0.0101   XZ=              0.0005   YZ=              0.0056
 Traceless Quadrupole moment (field-independent basis, Debye-Ang):
   XX=              0.6595   YY=             -0.3332   ZZ=             -0.3263
   XY=              0.0101   XZ=              0.0005   YZ=              0.0056
 Octapole moment (field-independent basis, Debye-Ang**2):
  XXX=             57.5915  YYY=              0.5094  ZZZ=              0.9321  XYY=              4.0711
  XXY=              0.0323  XXZ=             -0.0080  XZZ=              4.0881  YZZ=             -0.5125
  YYZ=             -0.9251  XYZ=              0.0069
 Hexadecapole moment (field-independent basis, Debye-Ang**3):
 XXXX=          -1032.0062 YYYY=           -226.0460 ZZZZ=           -226.0216 XXXY=              0.1531
 XXXZ=             -0.0333 YYYX=              2.4918 YYYZ=             -0.0103 ZZZX=              4.7326
 ZZZY=              0.0195 XXYY=           -211.0042 XXZZ=           -210.9129 YYZZ=            -75.3313
 XXYZ=              0.0267 YYXZ=             -4.7250 ZZXY=             -2.5147
 N-N= 2.777985979859D+02 E-N=-7.055028314670D+03  KE= 2.711688727010D+03
 No NMR shielding tensors so no spin-rotation constants.
 Leave Link  601 at Mon Oct 07 11:43:23 2019, MaxMem=   134217728 cpu:         1.0
 (Enter C:\G09W\l701.exe)
 Compute integral first derivatives.
 ... and contract with generalized density number  0.
 D1PCM: PCM CHGder 1st derivatives, ID1Alg=3 FixD1E=F DoIter=F DoCFld=F I1PDM=0.
 GePol: Maximum number of non-zero 1st derivatives   =     586
 Leave Link  701 at Mon Oct 07 11:43:26 2019, MaxMem=   134217728 cpu:         2.0
 (Enter C:\G09W\l702.exe)
 L702 exits ... SP integral derivatives will be done elsewhere.
 Leave Link  702 at Mon Oct 07 11:43:27 2019, MaxMem=   134217728 cpu:         0.0
 (Enter C:\G09W\l703.exe)
 Compute integral first derivatives, UseDBF=F ICtDFT=           0.
 Integral derivatives from FoFJK, PRISM(SPDF).
 Calling FoFJK, ICntrl=      2127 FMM=F ISym2X=0 I1Cent= 0 IOpClX= 0 NMat=1 NMatS=1 NMatT=0.
 FoFJK:  IHMeth= 1 ICntrl=    2127 DoSepK=F KAlg= 0 I1Cent=   0 FoldK=F
 IRaf=         0 NMat=   1 IRICut=       1 DoRegI=T DoRafI=F ISym2E= 0.
 FoFCou: FMM=F IPFlag=           0 FMFlag=      100000 FMFlg1=         800
         NFxFlg=           0 DoJE=F BraDBF=F KetDBF=F FulRan=T
         wScrn=  0.000000 ICntrl=    2127 IOpCl=  0 I1Cent=           0 NGrid=           0
         NMat0=    1 NMatS0=      1 NMatT0=    0 NMatD0=    1 NMtDS0=    0 NMtDT0=    0
 Symmetry not used in FoFCou.
 Leave Link  703 at Mon Oct 07 11:43:37 2019, MaxMem=   134217728 cpu:         9.0
 (Enter C:\G09W\l716.exe)
 Dipole        = 6.57492180D+00-6.79867392D-04-7.99640754D-04
 ***** Axes restored to original set *****
 -------------------------------------------------------------------
 Center     Atomic                   Forces (Hartrees/Bohr)
 Number     Number              X              Y              Z
 -------------------------------------------------------------------
      1        6           0.008945432    0.000249109    0.000157891
      2        6           0.000136189   -0.000250284   -0.000007385
      3        1          -0.000026943   -0.000013132   -0.000015562
      4        1          -0.000014185    0.000044107   -0.000026808
      5        1           0.000022298    0.000051466   -0.000000947
      6        6          -0.000160864   -0.000003525   -0.000098331
      7        1          -0.000027288   -0.000102938   -0.000049696
      8        1          -0.000015025    0.000082612   -0.000032344
      9        1           0.000002778   -0.000023262   -0.000071785
     10        6          -0.000101205    0.000053970    0.000024907
     11        1          -0.000115939   -0.000054350    0.000096316
     12        1           0.000010347    0.000018814   -0.000023813
     13        1           0.000091023   -0.000121715    0.000143197
     14       35          -0.008746618    0.000069128   -0.000095641
 -------------------------------------------------------------------
 Cartesian Forces:  Max     0.008945432 RMS     0.001932557
 Leave Link  716 at Mon Oct 07 11:43:38 2019, MaxMem=   134217728 cpu:         0.0
 (Enter C:\G09W\l103.exe)

 GradGradGradGradGradGradGradGradGradGradGradGradGradGradGradGradGradGrad
 Berny optimization.
 FormGI is forming the generalized inverse of G from B-inverse, IUseBI=4.
 Internal  Forces:  Max     0.008746589 RMS     0.001096748
 Search for a saddle point.
 Step number   1 out of a maximum of   74 on scan point     1 out of    21
 All quantities printed in internal units (Hartrees-Bohrs-Radians)
 Swapping is turned off.
 Second derivative matrix not updated -- first step.
 ITU=  0
     Eigenvalues ---    0.01164   0.01168   0.01169   0.02473   0.05613
     Eigenvalues ---    0.05615   0.05617   0.06678   0.06683   0.06684
     Eigenvalues ---    0.09060   0.09067   0.16000   0.16000   0.16000
     Eigenvalues ---    0.16000   0.16000   0.16000   0.16000   0.16000
     Eigenvalues ---    0.16000   0.24685   0.24685   0.32727   0.32733
     Eigenvalues ---    0.32746   0.34563   0.34573   0.34575   0.34579
     Eigenvalues ---    0.34581   0.34583   0.35754   0.35789   0.35794
     Eigenvalues --- 1000.000001000.000001000.000001000.000001000.00000
     Eigenvalues --- 1000.000001000.000001000.000001000.000001000.00000
     Eigenvalues --- 1000.000001000.000001000.000001000.000001000.00000
     Eigenvalues --- 1000.000001000.000001000.000001000.000001000.00000
     Eigenvalues --- 1000.000001000.000001000.000001000.000001000.00000
     Eigenvalues --- 1000.000001000.000001000.000001000.00000
 Eigenvectors required to have negative eigenvalues:
                          D4        D1        D7        D5        D2
   1                    0.33333   0.33333   0.33333   0.33333   0.33333
                          D8        D6        D3        D9        D16
   1                    0.33333   0.33333   0.33333   0.33333   0.00000
 Eigenvalue     1 is   1.16D-02 should be less than     0.000000 Eigenvector:
                          D4        D1        D7        D5        D2
   1                    0.33333   0.33333   0.33333   0.33333   0.33333
                          D8        D6        D3        D9        D16
   1                    0.33333   0.33333   0.33333   0.33333   0.00000
 RFO step:  Lambda0=1.164323430D-02 Lambda=-2.90204062D-06.
 Linear search not attempted -- option 19 set.
 Maximum step size (   0.300) exceeded in Quadratic search.
    -- Step size scaled by   0.012
 Iteration  1 RMS(Cart)=  0.08058670 RMS(Int)=  0.30083683
 Iteration  2 RMS(Cart)=  0.08171729 RMS(Int)=  0.22588284
 Iteration  3 RMS(Cart)=  0.08175103 RMS(Int)=  0.15093837
 Iteration  4 RMS(Cart)=  0.08175932 RMS(Int)=  0.07609926
 Iteration  5 RMS(Cart)=  0.08176906 RMS(Int)=  0.00702615
 Iteration  6 RMS(Cart)=  0.00725545 RMS(Int)=  0.00003288
 Iteration  7 RMS(Cart)=  0.00004019 RMS(Int)=  0.00000000
 Iteration  8 RMS(Cart)=  0.00000000 RMS(Int)=  0.00000000
 Iteration  1 RMS(Cart)=  0.00000000 RMS(Int)=  0.00000000
 ITry= 1 IFail=0 DXMaxC= 1.70D+00 DCOld= 1.00D+10 DXMaxT= 3.00D-01 DXLimC= 3.00D+00 Rises=F
 Variable       Old X    -DE/DX   Delta X   Delta X   Delta X     New X
                                 (Linear)    (Quad)   (Total)
    R1        2.77768  -0.00018   0.00000  -0.00001  -0.00001   2.77767
    R2        2.77704   0.00028   0.00000   0.00001   0.00001   2.77705
    R3        2.77712   0.00023   0.00000   0.00001   0.00001   2.77713
    R4        7.01088  -0.00875   0.00000   0.00000   0.00000   7.01088
    R5        2.09501   0.00003   0.00000   0.00000   0.00000   2.09501
    R6        2.06364  -0.00002   0.00000   0.00000   0.00000   2.06364
    R7        2.06390   0.00003   0.00000   0.00000   0.00000   2.06391
    R8        2.06360  -0.00004   0.00000   0.00000   0.00000   2.06360
    R9        2.06370  -0.00007   0.00000   0.00000   0.00000   2.06370
   R10        2.09522  -0.00001   0.00000   0.00000   0.00000   2.09522
   R11        2.06357  -0.00003   0.00000   0.00000   0.00000   2.06357
   R12        2.06374  -0.00004   0.00000   0.00000   0.00000   2.06374
   R13        2.09534  -0.00003   0.00000   0.00000   0.00000   2.09534
    A1        2.09051   0.00002   0.00000   0.00000   0.00000   2.09051
    A2        2.09058  -0.00017   0.00000  -0.00001  -0.00001   2.09058
    A3        1.61957  -0.00006   0.00000  -0.00001  -0.00001   1.61956
    A4        2.09038   0.00014   0.00000   0.00001   0.00001   2.09039
    A5        1.61875  -0.00003   0.00000   0.00000   0.00000   1.61875
    A6        1.61661   0.00011   0.00000   0.00002   0.00002   1.61662
    A7        1.83641  -0.00007   0.00000  -0.00001  -0.00001   1.83640
    A8        1.96706   0.00005   0.00000   0.00000   0.00000   1.96707
    A9        1.96623   0.00006   0.00000   0.00001   0.00001   1.96624
   A10        1.86609   0.00000   0.00000   0.00000   0.00000   1.86609
   A11        1.86540   0.00000   0.00000   0.00000   0.00000   1.86540
   A12        1.95273  -0.00005   0.00000   0.00000   0.00000   1.95273
   A13        1.96654   0.00006   0.00000   0.00000   0.00000   1.96654
   A14        1.96678   0.00003   0.00000   0.00000   0.00000   1.96678
   A15        1.83610   0.00015   0.00000   0.00001   0.00001   1.83611
   A16        1.95319  -0.00010   0.00000  -0.00001  -0.00001   1.95317
   A17        1.86533  -0.00008   0.00000   0.00000   0.00000   1.86533
   A18        1.86593  -0.00006   0.00000   0.00000   0.00000   1.86592
   A19        1.96727   0.00016   0.00000   0.00001   0.00001   1.96729
   A20        1.96669  -0.00008   0.00000  -0.00001  -0.00001   1.96668
   A21        1.83581   0.00024   0.00000   0.00002   0.00002   1.83583
   A22        1.95281  -0.00004   0.00000   0.00000   0.00000   1.95281
   A23        1.86639  -0.00018   0.00000  -0.00001  -0.00001   1.86638
   A24        1.86485  -0.00010   0.00000  -0.00001  -0.00001   1.86484
    D1        1.48354   0.00001   0.00000   1.00000   1.00000   2.48354
    D2       -2.77241  -0.00001   0.00000   1.00000   1.00000  -1.77241
    D3       -0.54244   0.00002   0.00000   1.00000   1.00000   0.45756
    D4       -1.49388   0.00001   0.00000   1.00001   1.00001  -0.49387
    D5        0.53335   0.00000   0.00000   1.00000   1.00000   1.53336
    D6        2.76332   0.00002   0.00000   1.00001   1.00001  -2.51986
    D7        3.13766  -0.00006   0.00000   0.99999   0.99999  -2.14553
    D8       -1.11829  -0.00008   0.00000   0.99999   0.99999  -0.11830
    D9        1.11168  -0.00005   0.00000   1.00000   1.00000   2.11167
   D10        0.53771   0.00001   0.00000   0.00001   0.00001   0.53772
   D11        2.76832  -0.00005   0.00000  -0.00001  -0.00001   2.76831
   D12       -1.48816  -0.00002   0.00000   0.00000   0.00000  -1.48816
   D13       -2.76803  -0.00002   0.00000   0.00000   0.00000  -2.76803
   D14       -0.53742  -0.00008   0.00000  -0.00002  -0.00002  -0.53744
   D15        1.48928  -0.00005   0.00000  -0.00001  -0.00001   1.48927
   D16       -1.11688   0.00010   0.00000   0.00001   0.00001  -1.11686
   D17        1.11373   0.00004   0.00000   0.00000   0.00000   1.11373
   D18        3.14044   0.00007   0.00000   0.00001   0.00001   3.14044
   D19       -2.77586  -0.00002   0.00000  -0.00002  -0.00002  -2.77588
   D20       -0.54522  -0.00001   0.00000  -0.00002  -0.00002  -0.54524
   D21        1.47998  -0.00002   0.00000  -0.00002  -0.00002   1.47996
   D22        0.52989   0.00000   0.00000  -0.00001  -0.00001   0.52988
   D23        2.76053   0.00001   0.00000  -0.00001  -0.00001   2.76052
   D24       -1.49745  -0.00001   0.00000  -0.00001  -0.00001  -1.49747
   D25       -1.12250  -0.00004   0.00000  -0.00002  -0.00002  -1.12253
   D26        1.10813  -0.00003   0.00000  -0.00002  -0.00002   1.10812
   D27        3.13334  -0.00004   0.00000  -0.00002  -0.00002   3.13331
         Item               Value     Threshold  Converged?
 Maximum Force            0.000280     0.000450     YES
 RMS     Force            0.000087     0.000300     YES
 Maximum Displacement     1.698108     0.001800     NO 
 RMS     Displacement     0.390225     0.001200     NO 
 Predicted change in Energy= 5.253479D-02
 Optimization stopped.
    -- Wrong number of Negative eigenvalues: Desired=  1 Actual=  0
    -- Flag reset to prevent archiving.
                           ----------------------------
                           ! Non-Optimized Parameters !
                           ! (Angstroms and Degrees)  !
 --------------------------                            --------------------------
 ! Name  Definition              Value          Derivative Info.                !
 --------------------------------------------------------------------------------
 ! R1    R(1,2)                  1.4699         -DE/DX =   -0.0002              !
 ! R2    R(1,6)                  1.4696         -DE/DX =    0.0003              !
 ! R3    R(1,10)                 1.4696         -DE/DX =    0.0002              !
 ! R4    R(1,14)                 3.71           -DE/DX =   -0.0087              !
 ! R5    R(2,3)                  1.1086         -DE/DX =    0.0                 !
 ! R6    R(2,4)                  1.092          -DE/DX =    0.0                 !
 ! R7    R(2,5)                  1.0922         -DE/DX =    0.0                 !
 ! R8    R(6,7)                  1.092          -DE/DX =    0.0                 !
 ! R9    R(6,8)                  1.0921         -DE/DX =   -0.0001              !
 ! R10   R(6,9)                  1.1087         -DE/DX =    0.0                 !
 ! R11   R(10,11)                1.092          -DE/DX =    0.0                 !
 ! R12   R(10,12)                1.0921         -DE/DX =    0.0                 !
 ! R13   R(10,13)                1.1088         -DE/DX =    0.0                 !
 ! A1    A(2,1,6)              119.7773         -DE/DX =    0.0                 !
 ! A2    A(2,1,10)             119.7812         -DE/DX =   -0.0002              !
 ! A3    A(2,1,14)              92.794          -DE/DX =   -0.0001              !
 ! A4    A(6,1,10)             119.7706         -DE/DX =    0.0001              !
 ! A5    A(6,1,14)              92.7477         -DE/DX =    0.0                 !
 ! A6    A(10,1,14)             92.6256         -DE/DX =    0.0001              !
 ! A7    A(1,2,3)              105.218          -DE/DX =   -0.0001              !
 ! A8    A(1,2,4)              112.7046         -DE/DX =    0.0                 !
 ! A9    A(1,2,5)              112.6572         -DE/DX =    0.0001              !
 ! A10   A(3,2,4)              106.9189         -DE/DX =    0.0                 !
 ! A11   A(3,2,5)              106.8795         -DE/DX =    0.0                 !
 ! A12   A(4,2,5)              111.8832         -DE/DX =   -0.0001              !
 ! A13   A(1,6,7)              112.6744         -DE/DX =    0.0001              !
 ! A14   A(1,6,8)              112.6879         -DE/DX =    0.0                 !
 ! A15   A(1,6,9)              105.2014         -DE/DX =    0.0001              !
 ! A16   A(7,6,8)              111.9086         -DE/DX =   -0.0001              !
 ! A17   A(7,6,9)              106.8755         -DE/DX =   -0.0001              !
 ! A18   A(8,6,9)              106.9096         -DE/DX =   -0.0001              !
 ! A19   A(1,10,11)            112.7172         -DE/DX =    0.0002              !
 ! A20   A(1,10,12)            112.6824         -DE/DX =   -0.0001              !
 ! A21   A(1,10,13)            105.1853         -DE/DX =    0.0002              !
 ! A22   A(11,10,12)           111.8875         -DE/DX =    0.0                 !
 ! A23   A(11,10,13)           106.9357         -DE/DX =   -0.0002              !
 ! A24   A(12,10,13)           106.8475         -DE/DX =   -0.0001              !
 ! D1    D(6,1,2,3)            142.2965         -DE/DX =    0.0                 !
 ! D2    D(6,1,2,4)           -101.5519         -DE/DX =    0.0                 !
 ! D3    D(6,1,2,5)             26.2162         -DE/DX =    0.0                 !
 ! D4    D(10,1,2,3)           -28.2968         -DE/DX =    0.0                 !
 ! D5    D(10,1,2,4)            87.8548         -DE/DX =    0.0                 !
 ! D6    D(10,1,2,5)          -144.3771         -DE/DX =    0.0                 !
 ! D7    D(14,1,2,3)          -122.9297         -DE/DX =   -0.0001              !
 ! D8    D(14,1,2,4)            -6.7781         -DE/DX =   -0.0001              !
 ! D9    D(14,1,2,5)           120.9899         -DE/DX =   -0.0001              !
 ! D10   D(2,1,6,7)             30.8091         -DE/DX =    0.0                 !
 ! D11   D(2,1,6,8)            158.6127         -DE/DX =    0.0                 !
 ! D12   D(2,1,6,9)            -85.2653         -DE/DX =    0.0                 !
 ! D13   D(10,1,6,7)          -158.5966         -DE/DX =    0.0                 !
 ! D14   D(10,1,6,8)           -30.7929         -DE/DX =   -0.0001              !
 ! D15   D(10,1,6,9)            85.3291         -DE/DX =   -0.0001              !
 ! D16   D(14,1,6,7)           -63.9914         -DE/DX =    0.0001              !
 ! D17   D(14,1,6,8)            63.8122         -DE/DX =    0.0                 !
 ! D18   D(14,1,6,9)           179.9342         -DE/DX =    0.0001              !
 ! D19   D(2,1,10,11)         -159.0463         -DE/DX =    0.0                 !
 ! D20   D(2,1,10,12)          -31.2399         -DE/DX =    0.0                 !
 ! D21   D(2,1,10,13)           84.7954         -DE/DX =    0.0                 !
 ! D22   D(6,1,10,11)           30.3598         -DE/DX =    0.0                 !
 ! D23   D(6,1,10,12)          158.1661         -DE/DX =    0.0                 !
 ! D24   D(6,1,10,13)          -85.7986         -DE/DX =    0.0                 !
 ! D25   D(14,1,10,11)         -64.316          -DE/DX =    0.0                 !
 ! D26   D(14,1,10,12)          63.4903         -DE/DX =    0.0                 !
 ! D27   D(14,1,10,13)         179.5256         -DE/DX =    0.0                 !
 --------------------------------------------------------------------------------
 Lowest energy point so far.  Saving SCF results.
 Iteration  1 RMS(Cart)=  0.02409056 RMS(Int)=  0.04586473
 Iteration  2 RMS(Cart)=  0.02409056 RMS(Int)=  0.02086473
 Iteration  3 RMS(Cart)=  0.02010572 RMS(Int)=  0.00000017
 Iteration  4 RMS(Cart)=  0.00000039 RMS(Int)=  0.00000000
 Iteration  1 RMS(Cart)=  0.00000000 RMS(Int)=  0.00000000
 GradGradGradGradGradGradGradGradGradGradGradGradGradGradGradGradGradGrad

 Leave Link  103 at Mon Oct 07 11:43:38 2019, MaxMem=   134217728 cpu:         0.0
 (Enter C:\G09W\l202.exe)
                          Input orientation:                          
 ---------------------------------------------------------------------
 Center     Atomic      Atomic             Coordinates (Angstroms)
 Number     Number       Type             X           Y           Z
 ---------------------------------------------------------------------
      1          6           0       -1.897146    0.008176   -0.024576
      2          6           0       -1.972045    1.382493    0.491364
      3          1           0       -2.640389    1.325928    1.374074
      4          1           0       -1.007836    1.752720    0.846000
      5          1           0       -2.438010    2.072449   -0.215515
      6          6           0       -1.859761   -0.225892   -1.474886
      7          1           0       -1.371855    0.585022   -2.019732
      8          1           0       -1.440674   -1.200592   -1.733586
      9          1           0       -2.921177   -0.235921   -1.795212
     10          6           0       -2.068342   -1.126508    0.893516
     11          1           0       -1.644628   -2.053579    0.501777
     12          1           0       -1.710550   -0.909706    1.902292
     13          1           0       -3.164304   -1.277961    0.966881
     14         35           0        2.098918   -0.101546    0.290923
 ---------------------------------------------------------------------
                    Distance matrix (angstroms):
                    1          2          3          4          5
     1  C    0.000000
     2  C    1.469882   0.000000
     3  H    2.060365   1.108630   0.000000
     4  H    2.142944   1.092033   1.768119   0.000000
     5  H    2.142479   1.092172   1.767780   1.809542   0.000000
     6  C    1.469553   2.542764   3.336780   3.166575   2.683795
     7  H    2.142272   2.702183   3.698113   3.115839   2.569888
     8  H    2.142475   3.450375   4.180929   3.945081   3.743262
     9  H    2.059945   2.957794   3.544374   3.819891   2.838567
    10  C    1.469594   2.542850   2.563711   3.068694   3.405867
    11  H    2.142813   3.451653   3.629533   3.874520   4.262402
    12  H    2.142463   2.704307   2.478240   2.949249   3.729283
    13  H    2.059812   2.953915   2.687104   3.721558   3.626405
    14  Br   4.010000   4.337660   5.066747   3.660373   5.056327
                    6          7          8          9         10
     6  C    0.000000
     7  H    1.092012   0.000000
     8  H    1.092062   1.809705   0.000000
     9  H    1.108744   1.767698   1.768128   0.000000
    10  C    2.542429   3.449847   2.702058   2.957994   0.000000
    11  H    2.700726   3.659867   2.401256   3.195249   1.091996
    12  H    3.448942   4.210843   3.657466   3.948562   1.092084
    13  H    2.961573   3.950119   3.204592   2.962113   1.108807
    14  Br   4.336436   4.225726   4.223180   5.437956   4.333558
                   11         12         13         14
    11  H    0.000000
    12  H    1.809485   0.000000
    13  H    1.768423   1.767486   0.000000
    14  Br   4.227178   4.214460   5.435290   0.000000
 Stoichiometry    C4H9Br
 Framework group  C1[X(C4H9Br)]
 Deg. of freedom    36
 Full point group                 C1      NOp   1
 RotChk:  IX=1 Diff= 1.39D+00
 Largest Abelian subgroup         C1      NOp   1
 Largest concise Abelian subgroup C1      NOp   1
                         Standard orientation:                         
 ---------------------------------------------------------------------
 Center     Atomic      Atomic             Coordinates (Angstroms)
 Number     Number       Type             X           Y           Z
 ---------------------------------------------------------------------
      1          6           0        2.027011   -0.002405    0.003529
      2          6           0        2.098400    1.153641    0.908523
      3          1           0        2.694241    1.913369    0.363687
      4          1           0        1.119801    1.597288    1.103602
      5          1           0        2.636337    0.931816    1.832783
      6          6           0        2.096366   -1.364004    0.552003
      7          1           0        1.674307   -1.435159    1.556638
      8          1           0        1.672666   -2.111650   -0.121869
      9          1           0        3.178843   -1.586740    0.641134
     10          6           0        2.095687    0.203138   -1.449999
     11          1           0        1.679010   -0.633697   -2.014394
     12          1           0        1.666404    1.157920   -1.761054
     13          1           0        3.178149    0.245184   -1.686562
     14         35           0       -1.982987   -0.000587    0.000049
 ---------------------------------------------------------------------
 Rotational constants (GHZ):      4.4588667      0.8263915      0.8259038
 Leave Link  202 at Mon Oct 07 11:43:38 2019, MaxMem=   134217728 cpu:         0.0
 (Enter C:\G09W\l301.exe)
 Standard basis: 6-31+G(d) (6D, 7F)
 Ernie: Thresh=  0.10000D-02 Tol=  0.10000D-05 Strict=F.
 There are   128 symmetry adapted cartesian basis functions of A   symmetry.
 There are   128 symmetry adapted basis functions of A   symmetry.
   128 basis functions,   251 primitive gaussians,   128 cartesian basis functions
    34 alpha electrons       34 beta electrons
       nuclear repulsion energy       268.1770324773 Hartrees.
 IExCor=  402 DFT=T Ex+Corr=B3LYP ExCW=0 ScaHFX=  0.200000
 ScaDFX=  0.800000  0.720000  1.000000  0.810000 ScalE2=  1.000000  1.000000
 IRadAn=      0 IRanWt=     -1 IRanGd=            0 ICorTp=0 IEmpDi=  4
 NAtoms=   14 NActive=   14 NUniq=   14 SFac= 1.00D+00 NAtFMM=   60 NAOKFM=F Big=F
 Integral buffers will be    131072 words long.
 Raffenetti 2 integral format.
 Two-electron integral symmetry is turned on.
 ------------------------------------------------------------------------------
 Polarizable Continuum Model (PCM)
 =================================
 Model                : PCM (using non-symmetric T matrix).
 Atomic radii         : SMD-Coulomb.
 Polarization charges : Total charges.
 Charge compensation  : None.
 Solution method      : On-the-fly selection.
 Cavity type          : VdW (van der Waals Surface) (Alpha=1.000).
 Cavity algorithm     : GePol (No added spheres)
                        Default sphere list used, NSphG=   14.
                        Lebedev-Laikov grids with approx.  5.0 points / Ang**2.
                        Smoothing algorithm: Karplus/York (Gamma=1.0000).
                        Polarization charges: spherical gaussians, with
                                              point-specific exponents (IZeta= 3).
                        Self-potential: point-specific (ISelfS= 7).
                        Self-field    : sphere-specific E.n sum rule (ISelfD= 2).
 1st derivatives      : Analytical E(r).r(x)/FMM algorithm (CHGder, D1EAlg=3).
                        Cavity 1st derivative terms included.
 Solvent              : Dichloromethane, Eps=   8.930000 Eps(inf)=   2.028346
 ------------------------------------------------------------------------------
 Spheres list:
 ISph  on   Nord     Re0    Alpha      Xe            Ye            Ze
    1   C      1    1.8500  1.000      2.027011     -0.002405      0.003529
    2   C      2    1.8500  1.000      2.098400      1.153641      0.908523
    3   H      3    1.2000  1.000      2.694241      1.913369      0.363687
    4   H      4    1.2000  1.000      1.119801      1.597288      1.103602
    5   H      5    1.2000  1.000      2.636337      0.931816      1.832783
    6   C      6    1.8500  1.000      2.096366     -1.364004      0.552003
    7   H      7    1.2000  1.000      1.674307     -1.435159      1.556638
    8   H      8    1.2000  1.000      1.672666     -2.111650     -0.121869
    9   H      9    1.2000  1.000      3.178843     -1.586740      0.641134
   10   C     10    1.8500  1.000      2.095687      0.203138     -1.449999
   11   H     11    1.2000  1.000      1.679010     -0.633697     -2.014394
   12   H     12    1.2000  1.000      1.666404      1.157920     -1.761054
   13   H     13    1.2000  1.000      3.178149      0.245184     -1.686562
   14  Br     14    3.0600  1.000     -1.982987     -0.000587      0.000049
 ------------------------------------------------------------------------------
 GePol: Number of generator spheres                  =      14
 GePol: Total number of spheres                      =      14
 GePol: Number of exposed spheres                    =      14 (100.00%)
 GePol: Number of points                             =    1411
 GePol: Average weight of points                     =       0.14
 GePol: Minimum weight of points                     =   0.46D-08
 GePol: Maximum weight of points                     =    0.22025
 GePol: Number of points with low weight             =      56
 GePol: Fraction of low-weight points (<1% of avg)   =       3.97%
 GePol: Cavity surface area                          =    202.934 Ang**2
 GePol: Cavity volume                                =    197.474 Ang**3
 ------------------------------------------------------------------------------
 Atomic radii for non-electrostatic terms: SMD-CDS.
 ------------------------------------------------------------------------------
 PCM non-electrostatic energy =        -0.0063654035 Hartrees.
 Nuclear repulsion after PCM non-electrostatic terms =      268.1706670738 Hartrees.
 Leave Link  301 at Mon Oct 07 11:43:39 2019, MaxMem=   134217728 cpu:         1.0
 (Enter C:\G09W\l302.exe)
 NPDir=0 NMtPBC=     1 NCelOv=     1 NCel=       1 NClECP=     1 NCelD=      1
         NCelK=      1 NCelE2=     1 NClLst=     1 CellRange=     0.0.
 One-electron integrals computed using PRISM.
 NBasis=   128 RedAO= T EigKep=  7.73D-05  NBF=   128
 NBsUse=   128 1.00D-06 EigRej= -1.00D+00 NBFU=   128
 Precomputing XC quadrature grid using
 IXCGrd= 4 IRadAn=           0 IRanWt=          -1 IRanGd=           0 AccXCQ= 0.00D+00.
 Generated NRdTot=       0 NPtTot=           0 NUsed=           0 NTot=          32
 NSgBfM=   127   127   127   127   127 MxSgAt=    14 MxSgA2=    14.
 Leave Link  302 at Mon Oct 07 11:43:39 2019, MaxMem=   134217728 cpu:         0.0
 (Enter C:\G09W\l303.exe)
 DipDrv:  MaxL=1.
 Leave Link  303 at Mon Oct 07 11:43:40 2019, MaxMem=   134217728 cpu:         0.0
 (Enter C:\G09W\l401.exe)
 Initial guess from the checkpoint file:  "C:\Users\Public\tests\Sn1_vac_TS.chk"
 B after Tr=     0.000000    0.000000    0.000000
         Rot=    0.871084   -0.491114   -0.004221   -0.001000 Ang= -58.83 deg.
 Guess basis will be translated and rotated to current coordinates.
 JPrj=2 DoOrth=T DoCkMO=T.
 Generating alternative initial guess.
 ExpMin= 3.50D-02 ExpMax= 5.74D+05 ExpMxC= 5.74D+03 IAcc=3 IRadAn=         5 AccDes= 0.00D+00
 Harris functional with IExCor=  402 and IRadAn=       5 diagonalized for initial guess.
 HarFok:  IExCor=  402 AccDes= 0.00D+00 IRadAn=         5 IDoV= 1 UseB2=F ITyADJ=14
 ICtDFT=  3500011 ScaDFX=  1.000000  1.000000  1.000000  1.000000
 FoFCou: FMM=F IPFlag=           0 FMFlag=      100000 FMFlg1=           0
         NFxFlg=           0 DoJE=T BraDBF=F KetDBF=T FulRan=T
         wScrn=  0.000000 ICntrl=     500 IOpCl=  0 I1Cent=   200000004 NGrid=           0
         NMat0=    1 NMatS0=      1 NMatT0=    0 NMatD0=    1 NMtDS0=    0 NMtDT0=    0
 Petite list used in FoFCou.
 Harris En= -2729.75154680444    
 Leave Link  401 at Mon Oct 07 11:43:45 2019, MaxMem=   134217728 cpu:         5.0
 (Enter C:\G09W\l502.exe)
 Closed shell SCF:
 Using DIIS extrapolation, IDIIS=  1040.
 Integral symmetry usage will be decided dynamically.
 IVT=   100082417 IEndB=   100082417 NGot=   134217728 MDV=   134151823
 LenX=   134151823 LenY=   134134998
 Requested convergence on RMS density matrix=1.00D-08 within9999 cycles.
 Requested convergence on MAX density matrix=1.00D-06.
 Requested convergence on             energy=1.00D-06.
 No special actions if energy rises.
 Fock matrices will be formed incrementally for  20 cycles.

 Cycle   1  Pass 1  IDiag  1:
 FoFJK:  IHMeth= 1 ICntrl=       0 DoSepK=F KAlg= 0 I1Cent=   0 FoldK=F
 IRaf= 940000000 NMat=   1 IRICut=       1 DoRegI=T DoRafI=F ISym2E= 0.
 FoFCou: FMM=F IPFlag=           0 FMFlag=      100000 FMFlg1=           0
         NFxFlg=           0 DoJE=F BraDBF=F KetDBF=F FulRan=T
         wScrn=  0.000000 ICntrl=       0 IOpCl=  0 I1Cent=           0 NGrid=           0
         NMat0=    1 NMatS0=      1 NMatT0=    0 NMatD0=    1 NMtDS0=    0 NMtDT0=    0
 Symmetry not used in FoFCou.
 Inv3:  Mode=1 IEnd=     5972763.
 Iteration    1 A*A^-1 deviation from unit magnitude is 4.44D-15 for     15.
 Iteration    1 A*A^-1 deviation from orthogonality  is 4.20D-15 for    606     63.
 Iteration    1 A^-1*A deviation from unit magnitude is 3.55D-15 for    867.
 Iteration    1 A^-1*A deviation from orthogonality  is 3.39D-12 for    522    479.
 E= -2729.34362142159    
 DIIS: error= 3.11D-02 at cycle   1 NSaved=   1.
 NSaved= 1 IEnMin= 1 EnMin= -2729.34362142159     IErMin= 1 ErrMin= 3.11D-02
 ErrMax= 3.11D-02  0.00D+00 EMaxC= 1.00D-01 BMatC= 1.69D-01 BMatP= 1.69D-01
 IDIUse=3 WtCom= 6.89D-01 WtEn= 3.11D-01
 Coeff-Com:  0.100D+01
 Coeff-En:   0.100D+01
 Coeff:      0.100D+01
 Recover alternate guess density for next cycle.
 RMSDP=1.25D-02 MaxDP=5.37D-01              OVMax= 0.00D+00

 Cycle   2  Pass 1  IDiag  1:
 RMSU=  1.25D-02    CP:  9.98D-01
 E= -2729.36591012485     Delta-E=       -0.022288703260 Rises=F Damp=F
 DIIS: error= 1.43D-01 at cycle   2 NSaved=   2.
 NSaved= 2 IEnMin= 2 EnMin= -2729.36591012485     IErMin= 1 ErrMin= 3.11D-02
 ErrMax= 1.43D-01  0.00D+00 EMaxC= 1.00D-01 BMatC= 4.99D-01 BMatP= 1.69D-01
 IDIUse=2 WtCom= 0.00D+00 WtEn= 1.00D+00
 Coeff-En:   0.288D+00 0.712D+00
 Coeff:      0.288D+00 0.712D+00
 Gap=     0.006 Goal=   None    Shift=    0.000
 RMSDP=1.27D-02 MaxDP=4.97D-01 DE=-2.23D-02 OVMax= 3.59D-01

 Cycle   3  Pass 1  IDiag  1:
 RMSU=  7.26D-03    CP:  9.82D-01  1.69D-01
 E= -2729.43041256319     Delta-E=       -0.064502438342 Rises=F Damp=F
 DIIS: error= 3.11D-02 at cycle   3 NSaved=   3.
 NSaved= 3 IEnMin= 3 EnMin= -2729.43041256319     IErMin= 1 ErrMin= 3.11D-02
 ErrMax= 3.11D-02  0.00D+00 EMaxC= 1.00D-01 BMatC= 1.03D-01 BMatP= 1.69D-01
 IDIUse=3 WtCom= 6.89D-01 WtEn= 3.11D-01
 Coeff-Com:  0.218D+00 0.201D+00 0.581D+00
 Coeff-En:   0.000D+00 0.385D+00 0.615D+00
 Coeff:      0.150D+00 0.258D+00 0.592D+00
 Gap=     0.109 Goal=   None    Shift=    0.000
 RMSDP=6.72D-03 MaxDP=3.22D-01 DE=-6.45D-02 OVMax= 2.41D-01

 Cycle   4  Pass 1  IDiag  1:
 RMSU=  3.23D-03    CP:  9.78D-01  5.19D-01  4.55D-01
 E= -2729.52530192348     Delta-E=       -0.094889360294 Rises=F Damp=F
 DIIS: error= 1.15D-02 at cycle   4 NSaved=   4.
 NSaved= 4 IEnMin= 4 EnMin= -2729.52530192348     IErMin= 4 ErrMin= 1.15D-02
 ErrMax= 1.15D-02  0.00D+00 EMaxC= 1.00D-01 BMatC= 1.91D-02 BMatP= 1.03D-01
 IDIUse=3 WtCom= 8.85D-01 WtEn= 1.15D-01
 Coeff-Com:  0.833D-02 0.390D-01 0.300D+00 0.653D+00
 Coeff-En:   0.000D+00 0.000D+00 0.129D+00 0.871D+00
 Coeff:      0.737D-02 0.345D-01 0.280D+00 0.678D+00
 Gap=     0.044 Goal=   None    Shift=    0.000
 RMSDP=3.66D-03 MaxDP=2.15D-01 DE=-9.49D-02 OVMax= 1.18D-01

 Cycle   5  Pass 1  IDiag  1:
 RMSU=  1.68D-03    CP:  9.81D-01  3.23D-01  6.91D-01  6.01D-01
 E= -2729.54314605702     Delta-E=       -0.017844133538 Rises=F Damp=F
 DIIS: error= 3.68D-03 at cycle   5 NSaved=   5.
 NSaved= 5 IEnMin= 5 EnMin= -2729.54314605702     IErMin= 5 ErrMin= 3.68D-03
 ErrMax= 3.68D-03  0.00D+00 EMaxC= 1.00D-01 BMatC= 2.61D-03 BMatP= 1.91D-02
 IDIUse=3 WtCom= 9.63D-01 WtEn= 3.68D-02
 Coeff-Com: -0.452D-02 0.571D-02 0.126D+00 0.362D+00 0.511D+00
 Coeff-En:   0.000D+00 0.000D+00 0.000D+00 0.683D-01 0.932D+00
 Coeff:     -0.435D-02 0.550D-02 0.122D+00 0.351D+00 0.526D+00
 Gap=     0.068 Goal=   None    Shift=    0.000
 RMSDP=1.41D-03 MaxDP=7.54D-02 DE=-1.78D-02 OVMax= 6.30D-02

 Cycle   6  Pass 1  IDiag  1:
 RMSU=  4.32D-04    CP:  9.80D-01  3.86D-01  6.16D-01  7.74D-01  5.52D-01
 E= -2729.54624185685     Delta-E=       -0.003095799830 Rises=F Damp=F
 DIIS: error= 1.12D-03 at cycle   6 NSaved=   6.
 NSaved= 6 IEnMin= 6 EnMin= -2729.54624185685     IErMin= 6 ErrMin= 1.12D-03
 ErrMax= 1.12D-03  0.00D+00 EMaxC= 1.00D-01 BMatC= 1.69D-04 BMatP= 2.61D-03
[...]
           R8           1.09375   1.09375   1.09388   1.09386   1.09389
           R9           1.09260   1.09260   1.09258   1.09258   1.09257
           R10          1.10923   1.10923   1.10932   1.10935   1.10938
           R11          1.09242   1.09242   1.09244   1.09246   1.09247
           R12          1.09384   1.09384   1.09398   1.09394   1.09398
           R13          1.10888   1.10889   1.10895   1.10900   1.10903
           A1         119.84587 119.84554 119.85219 119.84770 119.84405
           A2         119.69450 119.69632 119.64638 119.66652 119.66219
           A3          91.61209  91.61247  91.50236  91.50766  91.48500
           A4         120.23812 120.23661 120.30908 120.29261 120.30626
           A5          91.69855  91.69847  91.56852  91.56902  91.55219
           A6          91.37928  91.37918  91.29934  91.30284  91.27762
           A7         108.93800 108.95078 108.42175 108.58147 108.76195
           A8         110.43717 110.43949 110.92777 110.93272 110.69724
           A9         111.41305 111.40036 111.38447 111.24728 111.30645
           A10        107.28705 107.29724 107.34425 107.45655 107.40096
           A11        108.62809 108.62525 108.25420 108.23001 108.40813
           A12        110.02273 110.01403 110.36391 110.26191 110.14602
           A13        112.59426 112.59538 112.57332 112.58453 112.57789
           A14        113.25014 113.25016 113.30263 113.30311 113.31244
           A15        104.33800 104.33774 104.28181 104.28290 104.28239
           A16        112.44583 112.44621 112.50554 112.50741 112.52392
           A17        106.38073 106.38019 106.30810 106.30209 106.28208
           A18        107.08335 107.08240 107.10400 107.09331 107.09101
           A19        113.17759 113.17767 113.21062 113.21079 113.22262
           A20        112.61459 112.61602 112.59744 112.61213 112.60528
           A21        104.43593 104.43536 104.40117 104.39538 104.38352
           A22        112.37713 112.37755 112.43325 112.43876 112.45726
           A23        107.10584 107.10484 107.10890 107.09674 107.09924
           A24        106.40243 106.40177 106.34905 106.34347 106.32499
           D1        -158.36557-101.07815-158.36949 144.25426-158.27354
           D2         -40.77658  16.53223 -40.73814 -97.87767 -40.50065
           D3          81.81293 139.10346  82.61875  25.25352  82.35597
           D4          27.02825  84.31597  26.65415 -30.71065  26.68668
           D5         144.61724-158.07364 144.28549  87.15742 144.45957
           D6         -92.79325 -35.50241 -92.35761-149.71139 -92.68380
           D7         -65.48038  -8.19285 -65.69721-123.07007 -65.63054
           D8          52.10862 109.41754  51.93413  -5.20200  52.14235
           D9         174.69813-128.01123 175.29103 117.92918 174.99898
           D10         28.41234  28.41217  28.19366  28.19726  28.15764
           D11        157.38085 157.38222 157.27364 157.29031 157.27620
           D12        -86.52654 -86.52646 -86.61703 -86.61225 -86.62481
           D13       -157.01115-157.01144-156.86370-156.86975-156.83494
           D14        -28.04265 -28.04140 -27.78371 -27.77670 -27.71638
           D15         88.04996  88.04992  88.32562  88.32074  88.38261
           D16        -64.42285 -64.42339 -64.44035 -64.44291 -64.44649
           D17         64.54566  64.54666  64.63964  64.65015  64.67207
           D18       -179.36173-179.36202-179.25103-179.25242-179.22894
           D19       -157.22672-157.22997-157.04040-157.07933-157.04555
           D20        -28.40029 -28.40161 -28.12155 -28.13957 -28.07551
           D21         86.63067  86.62892  86.81790  86.79692  86.82900
           D22         28.18856  28.18555  28.00655  27.97851  27.93796
           D23        157.01499 157.01391 156.92541 156.91827 156.90799
           D24        -87.95405 -87.95556 -88.13515 -88.14524 -88.18750
           D25        -64.58299 -64.58577 -64.57109 -64.60096 -64.60789
           D26         64.24344  64.24258  64.34776  64.33880  64.36215
           D27        179.27439 179.27312 179.28720 179.27529 179.26666
                          21
     Eigenvalues --  **********
           R1           1.46868
           R2           1.46311
           R3           1.46372
           R4           9.71000
           R5           1.10146
           R6           1.09676
           R7           1.09576
           R8           1.09388
           R9           1.09257
           R10          1.10940
           R11          1.09248
           R12          1.09396
           R13          1.10905
           A1         119.84174
           A2         119.67131
           A3          91.48788
           A4         120.29897
           A5          91.55302
           A6          91.27942
           A7         108.83171
           A8         110.70377
           A9         111.24182
           A10        107.45462
           A11        108.39528
           A12        110.09910
           A13        112.58317
           A14        113.31227
           A15        104.28327
           A16        112.52476
           A17        106.27936
           A18        107.08600
           A19        113.22280
           A20        112.61221
           A21        104.38088
           A22        112.45987
           A23        107.09330
           A24        106.32237
           D1         144.38836
           D2         -97.72722
           D3          25.02861
           D4         -30.64476
           D5          87.23966
           D6        -150.00450
           D7        -122.96614
           D8          -5.08172
           D9         117.67412
           D10         28.16024
           D11        157.28455
           D12        -86.62199
           D13       -156.83821
           D14        -27.71390
           D15         88.37955
           D16        -64.44757
           D17         64.67674
           D18       -179.22980
           D19       -157.06476
           D20        -28.08477
           D21         86.81840
           D22         27.92518
           D23        156.90518
           D24        -88.19166
           D25        -64.62234
           D26         64.35766
           D27        179.26082
 Largest change from initial coordinates is atom    5       2.895 Angstoms.
 Leave Link  103 at Mon Oct 07 12:22:33 2019, MaxMem=   134217728 cpu:         0.0
 (Enter C:\G09W\l202.exe)
                          Input orientation:                          
 ---------------------------------------------------------------------
 Center     Atomic      Atomic             Coordinates (Angstroms)
 Number     Number       Type             X           Y           Z
 ---------------------------------------------------------------------
      1          6           0       -2.338224    0.021792   -0.098059
      2          6           0       -2.392863    1.391101    0.429916
      3          1           0       -2.124201    1.369980    1.498034
      4          1           0       -1.663085    2.032283   -0.079244
      5          1           0       -3.398783    1.814736    0.334480
      6          6           0       -2.177725   -0.198422   -1.535552
      7          1           0       -1.640135    0.617145   -2.027935
      8          1           0       -1.763668   -1.179732   -1.779071
      9          1           0       -3.212970   -0.173474   -1.933521
     10          6           0       -2.553772   -1.111221    0.803228
     11          1           0       -2.116009   -2.042606    0.436654
     12          1           0       -2.262324   -0.889824    1.834167
     13          1           0       -3.654059   -1.249834    0.813254
     14         35           0        7.260020   -0.406841    1.306968
 ---------------------------------------------------------------------
                    Distance matrix (angstroms):
                    1          2          3          4          5
     1  C    0.000000
     2  C    1.468588   0.000000
     3  H    2.100221   1.101590   0.000000
     4  H    2.120905   1.096783   1.771745   0.000000
     5  H    2.127563   1.095651   1.782197   1.797538   0.000000
     6  C    1.463093   2.536914   3.415464   2.713251   3.006794
     7  H    2.136866   2.684519   3.637793   2.408430   3.179319
     8  H    2.144663   3.447419   4.167786   3.635460   4.013420
     9  H    2.042604   2.950645   3.917044   3.271979   3.021809
    10  C    1.463727   2.535128   2.612211   3.384331   3.081395
    11  H    2.144070   3.444857   3.573841   4.132313   4.066330
    12  H    2.137826   2.681712   2.288838   3.543859   3.294730
    13  H    2.044247   2.951627   3.110115   3.941170   3.112231
    14  Br   9.710000   9.857989   9.552863   9.353753  10.931204
                    6          7          8          9         10
     6  C    0.000000
     7  H    1.093890   0.000000
     8  H    1.092572   1.818231   0.000000
     9  H    1.109384   1.762896   1.771125   0.000000
    10  C    2.538603   3.440562   2.701338   2.967104   0.000000
    11  H    2.700818   3.657176   2.403775   3.211652   1.092470
    12  H    3.440958   4.192124   3.658988   3.951247   1.093980
    13  H    2.966802   3.951437   3.209150   2.982932   1.109030
    14  Br   9.858721   9.559439   9.568069  10.965342   9.851924
                   11         12         13         14
    11  H    0.000000
    12  H    1.817514   0.000000
    13  H    1.770852   1.763178   0.000000
    14  Br   9.557357   9.549149  10.957715   0.000000
 Stoichiometry    C4H9Br
 Framework group  C1[X(C4H9Br)]
 Deg. of freedom    36
 Full point group                 C1      NOp   1
 RotChk:  IX=1 Diff= 4.32D-13
 Largest Abelian subgroup         C1      NOp   1
 Largest concise Abelian subgroup C1      NOp   1
                         Standard orientation:                         
 ---------------------------------------------------------------------
 Center     Atomic      Atomic             Coordinates (Angstroms)
 Number     Number       Type             X           Y           Z
 ---------------------------------------------------------------------
      1          6           0        4.976445   -0.004703   -0.002056
      2          6           0        5.015098    0.946350    1.116316
      3          1           0        4.594387    1.907001    0.779192
      4          1           0        4.395693    0.591120    1.948831
      5          1           0        6.042083    1.118879    1.456884
      6          6           0        5.015517   -1.442951    0.263570
      7          1           0        4.591422   -1.701725    1.238134
      8          1           0        4.597750   -2.043959   -0.547586
      9          1           0        6.097443   -1.681180    0.322011
     10          6           0        5.009054    0.493448   -1.378021
     11          1           0        4.587837   -0.209298   -2.100665
     12          1           0        4.581965    1.496180   -1.472441
     13          1           0        6.089110    0.591530   -1.609983
     14         35           0       -4.733554   -0.000612   -0.000378
 ---------------------------------------------------------------------
 Rotational constants (GHZ):      4.4758020      0.1575538      0.1575430
 Leave Link  202 at Mon Oct 07 12:22:34 2019, MaxMem=   134217728 cpu:         0.0
 (Enter C:\G09W\l601.exe)
 Copying SCF densities to generalized density rwf, IOpCl= 0 IROHF=0.

 **********************************************************************

            Population analysis using the SCF density.

 **********************************************************************

 Orbital symmetries:
       Occupied  (A) (A) (A) (A) (A) (A) (A) (A) (A) (A) (A) (A)
                 (A) (A) (A) (A) (A) (A) (A) (A) (A) (A) (A) (A)
                 (A) (A) (A) (A) (A) (A) (A) (A) (A) (A)
       Virtual   (A) (A) (A) (A) (A) (A) (A) (A) (A) (A) (A) (A)
                 (A) (A) (A) (A) (A) (A) (A) (A) (A) (A) (A) (A)
                 (A) (A) (A) (A) (A) (A) (A) (A) (A) (A) (A) (A)
                 (A) (A) (A) (A) (A) (A) (A) (A) (A) (A) (A) (A)
                 (A) (A) (A) (A) (A) (A) (A) (A) (A) (A) (A) (A)
                 (A) (A) (A) (A) (A) (A) (A) (A) (A) (A) (A) (A)
                 (A) (A) (A) (A) (A) (A) (A) (A) (A) (A) (A) (A)
                 (A) (A) (A) (A) (A) (A) (A) (A) (A) (A)
 The electronic state is 1-A.
 Alpha  occ. eigenvalues -- -482.77994 -61.74121 -56.25805 -56.25804 -56.25804
 Alpha  occ. eigenvalues --  -10.34227 -10.22606 -10.22581 -10.22344  -8.44954
 Alpha  occ. eigenvalues --   -6.39444  -6.39442  -6.39442  -2.51149  -2.51149
 Alpha  occ. eigenvalues --   -2.51149  -2.51148  -2.51148  -0.88741  -0.75298
 Alpha  occ. eigenvalues --   -0.75021  -0.61338  -0.58285  -0.50112  -0.49919
 Alpha  occ. eigenvalues --   -0.49795  -0.43473  -0.43149  -0.41141  -0.40734
 Alpha  occ. eigenvalues --   -0.40059  -0.18433  -0.18423  -0.18423
 Alpha virt. eigenvalues --   -0.14592   0.00138   0.02979   0.03001   0.03110
 Alpha virt. eigenvalues --    0.04166   0.04853   0.04955   0.05737   0.06995
 Alpha virt. eigenvalues --    0.07000   0.07057   0.07334   0.07400   0.09508
 Alpha virt. eigenvalues --    0.10926   0.12107   0.12437   0.14327   0.14449
 Alpha virt. eigenvalues --    0.14788   0.18790   0.18881   0.21067   0.22190
 Alpha virt. eigenvalues --    0.23114   0.24581   0.25957   0.28973   0.29376
 Alpha virt. eigenvalues --    0.29811   0.32218   0.32608   0.46762   0.58123
 Alpha virt. eigenvalues --    0.58125   0.58125   0.58131   0.58131   0.59158
 Alpha virt. eigenvalues --    0.62803   0.63268   0.64469   0.64790   0.64985
 Alpha virt. eigenvalues --    0.69386   0.69388   0.69414   0.70381   0.71237
 Alpha virt. eigenvalues --    0.72497   0.73942   0.73982   0.78322   0.89759
 Alpha virt. eigenvalues --    0.90680   0.92054   0.96590   0.96974   1.00359
 Alpha virt. eigenvalues --    1.02672   1.05502   1.10146   1.11143   1.19077
 Alpha virt. eigenvalues --    1.32289   1.33879   1.40832   1.41195   1.68469
 Alpha virt. eigenvalues --    1.75664   1.79388   1.79768   1.85532   1.96677
 Alpha virt. eigenvalues --    1.99491   2.03535   2.12095   2.17459   2.22541
 Alpha virt. eigenvalues --    2.23653   2.24251   2.26128   2.39400   2.40555
 Alpha virt. eigenvalues --    2.53406   2.73454   2.74646   4.10728   4.27812
 Alpha virt. eigenvalues --    4.28230   4.42648   8.83991  75.15309
          Condensed to atoms (all electrons):
               1          2          3          4          5          6
     1  C    5.159795   0.091077  -0.061735  -0.040801  -0.028470   0.094085
     2  C    0.091077   6.054285   0.399636   0.386035   0.398164  -0.233239
     3  H   -0.061735   0.399636   0.440625  -0.025803  -0.016474   0.011839
     4  H   -0.040801   0.386035  -0.025803   0.421951  -0.013289  -0.022283
     5  H   -0.028470   0.398164  -0.016474  -0.013289   0.380557  -0.017507
     6  C    0.094085  -0.233239   0.011839  -0.022283  -0.017507   6.055009
     7  H   -0.052748  -0.019094  -0.000017   0.001791   0.000551   0.396378
     8  H   -0.047620   0.011230  -0.000147  -0.000042   0.000000   0.392790
     9  H   -0.023347  -0.022890  -0.000011   0.000574  -0.000951   0.389443
    10  C    0.123542  -0.206264  -0.017088   0.011476  -0.020160  -0.194071
    11  H   -0.048891   0.012651   0.000033  -0.000157  -0.000025  -0.018141
    12  H   -0.048475  -0.023020   0.002760  -0.000051   0.000508   0.011726
    13  H   -0.023814  -0.017968   0.000597   0.000024  -0.000951  -0.024947
    14  Br  -0.000013   0.000002   0.000000   0.000000   0.000000   0.000005
               7          8          9         10         11         12
     1  C   -0.052748  -0.047620  -0.023347   0.123542  -0.048891  -0.048475
     2  C   -0.019094   0.011230  -0.022890  -0.206264   0.012651  -0.023020
     3  H   -0.000017  -0.000147  -0.000011  -0.017088   0.000033   0.002760
     4  H    0.001791  -0.000042   0.000574   0.011476  -0.000157  -0.000051
     5  H    0.000551   0.000000  -0.000951  -0.020160  -0.000025   0.000508
     6  C    0.396378   0.392790   0.389443  -0.194071  -0.018141   0.011726
     7  H    0.418545  -0.019799  -0.017060   0.011911  -0.000031  -0.000135
     8  H   -0.019799   0.419330  -0.016922  -0.019102   0.002117  -0.000019
     9  H   -0.017060  -0.016922   0.391596  -0.022299   0.000529   0.000009
    10  C    0.011911  -0.019102  -0.022299   6.019638   0.391092   0.395489
    11  H   -0.000031   0.002117   0.000529   0.391092   0.419196  -0.019795
    12  H   -0.000135  -0.000019   0.000009   0.395489  -0.019795   0.418055
    13  H    0.000014   0.000539  -0.001347   0.387704  -0.016605  -0.017030
    14  Br   0.000000   0.000000   0.000000   0.000004   0.000000   0.000000
              13         14
     1  C   -0.023814  -0.000013
     2  C   -0.017968   0.000002
     3  H    0.000597   0.000000
     4  H    0.000024   0.000000
     5  H   -0.000951   0.000000
     6  C   -0.024947   0.000005
     7  H    0.000014   0.000000
     8  H    0.000539   0.000000
     9  H   -0.001347   0.000000
    10  C    0.387704   0.000004
    11  H   -0.016605   0.000000
    12  H   -0.017030   0.000000
    13  H    0.390054   0.000000
    14  Br   0.000000  36.000003
 Mulliken charges:
               1
     1  C    0.907415
     2  C   -0.830606
     3  H    0.265784
     4  H    0.280576
     5  H    0.318047
     6  C   -0.841088
     7  H    0.279692
     8  H    0.277647
     9  H    0.322675
    10  C   -0.861871
    11  H    0.278026
    12  H    0.279977
    13  H    0.323728
    14  Br  -1.000001
 Sum of Mulliken charges =   0.00000
 Mulliken charges with hydrogens summed into heavy atoms:
               1
     1  C    0.907415
     2  C    0.033801
     6  C    0.038926
    10  C    0.019860
    14  Br  -1.000001
 Electronic spatial extent (au):  <R**2>=           6136.2212
 Charge=              0.0000 electrons
 Dipole moment (field-independent basis, Debye):
    X=             47.4730    Y=             -0.0723    Z=             -0.0364  Tot=             47.4730
 Quadrupole moment (field-independent basis, Debye-Ang):
   XX=            -26.8171   YY=            -43.4669   ZZ=            -43.2468
   XY=             -0.4796   XZ=             -0.3373   YZ=             -0.0847
 Traceless Quadrupole moment (field-independent basis, Debye-Ang):
   XX=             11.0265   YY=             -5.6233   ZZ=             -5.4032
   XY=             -0.4796   XZ=             -0.3373   YZ=             -0.0847
 Octapole moment (field-independent basis, Debye-Ang**2):
  XXX=           1177.9650  YYY=             -2.0872  ZZZ=             -1.1505  XYY=             21.1401
  XXY=             -2.7093  XXZ=             -1.8309  XZZ=             22.0920  YZZ=              1.5371
  YYZ=              0.5234  XYZ=             -0.3991
 Hexadecapole moment (field-independent basis, Debye-Ang**3):
 XXXX=          -5739.4702 YYYY=           -228.6866 ZZZZ=           -227.2691 XXXY=            -16.6541
 XXXZ=             -8.6454 YYYX=            -13.4771 YYYZ=             -0.9967 ZZZX=             -7.7281
 ZZZY=              0.5541 XXYY=          -1082.1039 XXZZ=          -1076.5695 YYZZ=            -75.2790
 XXYZ=             -1.6919 YYXZ=              5.0279 ZZXY=             11.3985
 N-N= 1.890477957439D+02 E-N=-6.877873386479D+03  KE= 2.711819138286D+03
 No NMR shielding tensors so no spin-rotation constants.
 Leave Link  601 at Mon Oct 07 12:22:34 2019, MaxMem=   134217728 cpu:         0.0
 (Enter C:\G09W\l9999.exe)


 THE REAL VOYAGE OF DISCOVERY CONSISTS NOT IN SEEKING NEW LANDSCAPES 
 BUT IN HAVING NEW EYES.
                                                    -- MARCEL PROUST
 Error termination request processed by link 9999.
 Error termination via Lnk1e in C:\G09W\l9999.exe at Mon Oct 07 12:22:34 2019.
 Job cpu time:       0 days  0 hours 40 minutes 46.0 seconds.
 File lengths (MBytes):  RWF=     88 Int=      0 D2E=      0 Chk=      6 Scr=      1
